#INFO: **** input file is /oscar/home/snirenbe/stalk_pca/examples/nexus/sn2_pca/tpw/image_0/hessian/eqm_p0-0.001_p2+0.001/scf.py ****
#!/usr/bin/env python3

from pyscf import dft
from numpy import savetxt


### generated system text ###
from pyscf import gto as gto_loc
mol = gto_loc.Mole()
mol.verbose  = 4
mol.atom     = '''
               C    0.37869737   0.00000153   0.00000000
               H    0.00083960   1.02651476  -0.00000000
               H    0.00083872  -0.51325491   0.88898644
               H    0.00083872  -0.51325491  -0.88898644
               F   -2.19510720   0.00000190  -0.00000000
               F    1.81389280   0.00000127   0.00000000
               '''
mol.basis    = 'ccpvtz'
mol.unit     = 'A'
mol.ecp      = 'ccecp'
mol.charge   = -1
mol.spin     = 0
mol.symmetry = False
mol.cart     = True
mol.build()
### end generated system text ###



### generated calculation text ###
mf = dft.RKS(mol)
mf.xc = 'pbe'
e_scf = mf.kernel()
### end generated calculation text ###

savetxt('energy.dat', [[e_scf, 0.0]])#INFO: ******************** input file end ********************


System: uname_result(system='Linux', node='node1934.oscar.ccv.brown.edu', release='5.14.0-284.11.1.el9_2_cifs.x86_64', version='#1 SMP PREEMPT_DYNAMIC Tue Feb 20 16:51:59 EST 2024', machine='x86_64')  Threads 1
Python 3.11.0 (main, Jan 10 2024, 14:25:36) [GCC 11.3.1 20221121 (Red Hat 11.3.1-4)]
numpy 2.3.2  scipy 1.16.1  h5py 3.14.0
Date: Sun Aug 17 12:17:34 2025
PySCF version 2.10.0
PySCF path  /users/snirenbe/stalk_venv/lib64/python3.11/site-packages/pyscf

[CONFIG] conf_file None
[INPUT] verbose = 4
[INPUT] num. atoms = 6
[INPUT] num. electrons = 22
[INPUT] charge = -1
[INPUT] spin (= nelec alpha-beta = 2S) = 0
[INPUT] symmetry False subgroup None
[INPUT] Mole.unit = A
[INPUT] Cartesian GTO integrals (6d 10f)
[INPUT] Symbol           X                Y                Z      unit          X                Y                Z       unit  Magmom
[INPUT]  1 C      0.378697370000   0.000001530000   0.000000000000 AA    0.715634313393   0.000002891281   0.000000000000 Bohr   0.0
[INPUT]  2 H      0.000839600000   1.026514760000   0.000000000000 AA    0.001586614054   1.939831759224   0.000000000000 Bohr   0.0
[INPUT]  3 H      0.000838720000  -0.513254910000   0.888986440000 AA    0.001584951095  -0.969911211988   1.679940900052 Bohr   0.0
[INPUT]  4 H      0.000838720000  -0.513254910000  -0.888986440000 AA    0.001584951095  -0.969911211988  -1.679940900052 Bohr   0.0
[INPUT]  5 F     -2.195107200000   0.000001900000   0.000000000000 AA   -4.148151422061   0.000003590480   0.000000000000 Bohr   0.0
[INPUT]  6 F      1.813892800000   0.000001270000   0.000000000000 AA    3.427760611320   0.000002399952   0.000000000000 Bohr   0.0

nuclear repulsion = 39.1650278715606
number of shells = 45
number of NR pGTOs = 192
number of NR cGTOs = 150
basis = ccpvtz
ecp = ccecp
CPU time:         0.41


******** <class 'pyscf.dft.rks.RKS'> ********
method = RKS
initial guess = minao
damping factor = 0
level_shift factor = 0
DIIS = <class 'pyscf.scf.diis.CDIIS'>
diis_start_cycle = 1
diis_space = 8
diis_damp = 0
SCF conv_tol = 1e-09
SCF conv_tol_grad = None
SCF max_cycles = 50
direct_scf = True
direct_scf_tol = 1e-13
chkfile to save SCF result = /tmp/tmpxgh9swsv
max_memory 4000 MB (current use 97 MB)
XC library pyscf.dft.libxc version 7.0.0
    S. Lehtola, C. Steigemann, M. J.T. Oliveira, and M. A.L. Marques.,  SoftwareX 7, 1–5 (2018)
XC functionals = pbe
    J. P. Perdew, K. Burke, and M. Ernzerhof.,  Phys. Rev. Lett. 77, 3865 (1996)
    J. P. Perdew, K. Burke, and M. Ernzerhof.,  Phys. Rev. Lett. 78, 1396 (1997)
    J. P. Perdew, K. Burke, and M. Ernzerhof.,  Phys. Rev. Lett. 77, 3865 (1996)
    J. P. Perdew, K. Burke, and M. Ernzerhof.,  Phys. Rev. Lett. 78, 1396 (1997)
radial grids: 
    Treutler-Ahlrichs [JCP 102, 346 (1995); DOI:10.1063/1.469408] (M4) radial grids
    
becke partition: Becke, JCP 88, 2547 (1988); DOI:10.1063/1.454033
pruning grids: <function nwchem_prune at 0x7f2d2377c9a0>
grids dens level: 3
symmetrized grids: False
atomic radii adjust function: <function treutler_atomic_radii_adjust at 0x7f2d2377c900>
small_rho_cutoff = 1e-07
Set gradient conv threshold to 3.16228e-05
Initial guess from minao.
tot grids = 72072
init E= -37.5427035163323
  HOMO = -0.369886522865781  LUMO = -0.0057021489809776
cycle= 1 E= -55.7955558971924  delta_E= -18.3  |g|= 0.867  |ddm|= 1.89

WARN: HOMO 0.27085633220884 == LUMO 0.270857032981794

cycle= 2 E= -46.9537717679059  delta_E= 8.84  |g|= 4.47  |ddm|= 54.4
  HOMO = 0.039140438877748  LUMO = 0.226589308879392
cycle= 3 E= -55.8808280804298  delta_E= -8.93  |g|= 0.591  |ddm|= 54.3
  HOMO = 0.0867748335018521  LUMO = 0.202660600905382
cycle= 4 E= -55.9191859967398  delta_E= -0.0384  |g|= 0.383  |ddm|= 0.817
  HOMO = 0.0911805490869011  LUMO = 0.201468351467796
cycle= 5 E= -55.940111443041  delta_E= -0.0209  |g|= 0.0889  |ddm|= 0.223
  HOMO = 0.0887147776410527  LUMO = 0.205466332278553
cycle= 6 E= -55.941360953201  delta_E= -0.00125  |g|= 0.0519  |ddm|= 0.0747
  HOMO = 0.0811459275351634  LUMO = 0.204552648819892
cycle= 7 E= -55.9418880720217  delta_E= -0.000527  |g|= 0.00998  |ddm|= 0.0618
  HOMO = 0.079812493696901  LUMO = 0.204130485543488
cycle= 8 E= -55.9419034855823  delta_E= -1.54e-05  |g|= 0.00239  |ddm|= 0.0105
  HOMO = 0.079594336680819  LUMO = 0.204145282571826
cycle= 9 E= -55.9419044487517  delta_E= -9.63e-07  |g|= 0.000208  |ddm|= 0.00247
  HOMO = 0.0795925572775984  LUMO = 0.2041514482608
cycle= 10 E= -55.9419044585506  delta_E= -9.8e-09  |g|= 2.13e-05  |ddm|= 0.00022
  HOMO = 0.0795956005903679  LUMO = 0.2041522171535
cycle= 11 E= -55.9419044586382  delta_E= -8.76e-11  |g|= 2.94e-06  |ddm|= 2.55e-05
  HOMO = 0.0795963580695775  LUMO = 0.204151949051543
Extra cycle  E= -55.9419044586351  delta_E= 3.11e-12  |g|= 5.28e-06  |ddm|= 9.29e-06
converged SCF energy = -55.9419044586351
