4
Properties=species:S:1:pos:R:3:move_mask:L:1:forces:R:3 energy=-305.7622468163167 pbc="F F F"
N        0.00000000       0.00000000       0.00000000  F       1.20043339       0.00002472      -0.00000000
H        0.58694542       1.90298520       0.00000000  T      -0.40015097      -3.08116369       0.00000000
H        0.58694542      -0.95149260       1.64803352  T      -0.40017860       1.54051917      -2.66835727
H        0.58694542      -0.95149260      -1.64803352  T      -0.40017860       1.54051917       2.66835727
