#INFO: **** input file is /oscar/home/snirenbe/stalk_pca/examples/nexus/sn2_pca/tpw/image_0/hessian/eqm_p1+0.001_p2-0.001/scf.py ****
#!/usr/bin/env python3

from pyscf import dft
from numpy import savetxt


### generated system text ###
from pyscf import gto as gto_loc
mol = gto_loc.Mole()
mol.verbose  = 4
mol.atom     = '''
               C    0.37864908   0.00000154   0.00000000
               H    0.00166499   1.02628620  -0.00000000
               H    0.00166491  -0.51314061   0.88878850
               H    0.00166491  -0.51314061  -0.88878850
               F   -2.19697128   0.00000210  -0.00000000
               F    1.81332739   0.00000103   0.00000000
               '''
mol.basis    = 'ccpvtz'
mol.unit     = 'A'
mol.ecp      = 'ccecp'
mol.charge   = -1
mol.spin     = 0
mol.symmetry = False
mol.cart     = True
mol.build()
### end generated system text ###



### generated calculation text ###
mf = dft.RKS(mol)
mf.xc = 'pbe'
e_scf = mf.kernel()
### end generated calculation text ###

savetxt('energy.dat', [[e_scf, 0.0]])#INFO: ******************** input file end ********************


System: uname_result(system='Linux', node='node1934.oscar.ccv.brown.edu', release='5.14.0-284.11.1.el9_2_cifs.x86_64', version='#1 SMP PREEMPT_DYNAMIC Tue Feb 20 16:51:59 EST 2024', machine='x86_64')  Threads 1
Python 3.11.0 (main, Jan 10 2024, 14:25:36) [GCC 11.3.1 20221121 (Red Hat 11.3.1-4)]
numpy 2.3.2  scipy 1.16.1  h5py 3.14.0
Date: Sun Aug 17 12:17:34 2025
PySCF version 2.10.0
PySCF path  /users/snirenbe/stalk_venv/lib64/python3.11/site-packages/pyscf

[CONFIG] conf_file None
[INPUT] verbose = 4
[INPUT] num. atoms = 6
[INPUT] num. electrons = 22
[INPUT] charge = -1
[INPUT] spin (= nelec alpha-beta = 2S) = 0
[INPUT] symmetry False subgroup None
[INPUT] Mole.unit = A
[INPUT] Cartesian GTO integrals (6d 10f)
[INPUT] Symbol           X                Y                Z      unit          X                Y                Z       unit  Magmom
[INPUT]  1 C      0.378649080000   0.000001540000   0.000000000000 AA    0.715543058519   0.000002910178   0.000000000000 Bohr   0.0
[INPUT]  2 H      0.001664990000   1.026286200000   0.000000000000 AA    0.003146375100   1.939399843421   0.000000000000 Bohr   0.0
[INPUT]  3 H      0.001664910000  -0.513140610000   0.888788500000 AA    0.003146223922  -0.969695216292   1.679566847663 Bohr   0.0
[INPUT]  4 H      0.001664910000  -0.513140610000  -0.888788500000 AA    0.003146223922  -0.969695216292  -1.679566847663 Bohr   0.0
[INPUT]  5 F     -2.196971280000   0.000002100000   0.000000000000 AA   -4.151674022735   0.000003968425   0.000000000000 Bohr   0.0
[INPUT]  6 F      1.813327390000   0.000001030000   0.000000000000 AA    3.426692141272   0.000001946418   0.000000000000 Bohr   0.0

nuclear repulsion = 39.1645036655378
number of shells = 45
number of NR pGTOs = 192
number of NR cGTOs = 150
basis = ccpvtz
ecp = ccecp
CPU time:         0.43


******** <class 'pyscf.dft.rks.RKS'> ********
method = RKS
initial guess = minao
damping factor = 0
level_shift factor = 0
DIIS = <class 'pyscf.scf.diis.CDIIS'>
diis_start_cycle = 1
diis_space = 8
diis_damp = 0
SCF conv_tol = 1e-09
SCF conv_tol_grad = None
SCF max_cycles = 50
direct_scf = True
direct_scf_tol = 1e-13
chkfile to save SCF result = /tmp/tmphabnhp4k
max_memory 4000 MB (current use 97 MB)
XC library pyscf.dft.libxc version 7.0.0
    S. Lehtola, C. Steigemann, M. J.T. Oliveira, and M. A.L. Marques.,  SoftwareX 7, 1–5 (2018)
XC functionals = pbe
    J. P. Perdew, K. Burke, and M. Ernzerhof.,  Phys. Rev. Lett. 77, 3865 (1996)
    J. P. Perdew, K. Burke, and M. Ernzerhof.,  Phys. Rev. Lett. 78, 1396 (1997)
    J. P. Perdew, K. Burke, and M. Ernzerhof.,  Phys. Rev. Lett. 77, 3865 (1996)
    J. P. Perdew, K. Burke, and M. Ernzerhof.,  Phys. Rev. Lett. 78, 1396 (1997)
radial grids: 
    Treutler-Ahlrichs [JCP 102, 346 (1995); DOI:10.1063/1.469408] (M4) radial grids
    
becke partition: Becke, JCP 88, 2547 (1988); DOI:10.1063/1.454033
pruning grids: <function nwchem_prune at 0x7f21110609a0>
grids dens level: 3
symmetrized grids: False
atomic radii adjust function: <function treutler_atomic_radii_adjust at 0x7f2111060900>
small_rho_cutoff = 1e-07
Set gradient conv threshold to 3.16228e-05
Initial guess from minao.
tot grids = 72072
init E= -37.5430216420121
  HOMO = -0.369994125953532  LUMO = -0.00565484953052279
cycle= 1 E= -55.7955278403371  delta_E= -18.3  |g|= 0.867  |ddm|= 1.89

WARN: HOMO 0.270915856411321 == LUMO 0.270916541388049

cycle= 2 E= -46.9514732579005  delta_E= 8.84  |g|= 4.47  |ddm|= 54.4
  HOMO = 0.0390975646362206  LUMO = 0.226605097904901
cycle= 3 E= -55.8808996750012  delta_E= -8.93  |g|= 0.591  |ddm|= 54.3
  HOMO = 0.08689007952429  LUMO = 0.202591354554947
cycle= 4 E= -55.919218265288  delta_E= -0.0383  |g|= 0.383  |ddm|= 0.816
  HOMO = 0.0913260562848528  LUMO = 0.201405283863969
cycle= 5 E= -55.9400868676571  delta_E= -0.0209  |g|= 0.0888  |ddm|= 0.223
  HOMO = 0.0888621141020329  LUMO = 0.205402519958599
cycle= 6 E= -55.9413330209531  delta_E= -0.00125  |g|= 0.0518  |ddm|= 0.0746
  HOMO = 0.0813019397208944  LUMO = 0.204491770890592
cycle= 7 E= -55.9418590014894  delta_E= -0.000526  |g|= 0.00998  |ddm|= 0.0618
  HOMO = 0.079967530972816  LUMO = 0.204070592975282
cycle= 8 E= -55.941874408178  delta_E= -1.54e-05  |g|= 0.00239  |ddm|= 0.0105
  HOMO = 0.0797492120587451  LUMO = 0.204085234522831
cycle= 9 E= -55.9418753693983  delta_E= -9.61e-07  |g|= 0.000208  |ddm|= 0.00247
  HOMO = 0.0797474969958993  LUMO = 0.204091415424626
cycle= 10 E= -55.941875379127  delta_E= -9.73e-09  |g|= 2.13e-05  |ddm|= 0.000219
  HOMO = 0.0797505294086009  LUMO = 0.20409217847802
cycle= 11 E= -55.941875379214  delta_E= -8.7e-11  |g|= 2.93e-06  |ddm|= 2.55e-05
  HOMO = 0.0797512846605081  LUMO = 0.20409191188482
Extra cycle  E= -55.9418753792113  delta_E= 2.79e-12  |g|= 5.25e-06  |ddm|= 9.26e-06
converged SCF energy = -55.9418753792113
