#INFO: **** input file is /oscar/home/snirenbe/stalk_pca/examples/nexus/sn2_pca/tpw/image_0/hessian/eqm_p0-0.001_p3-0.001/scf.py ****
#!/usr/bin/env python3

from pyscf import dft
from numpy import savetxt


### generated system text ###
from pyscf import gto as gto_loc
mol = gto_loc.Mole()
mol.verbose  = 4
mol.atom     = '''
               C    0.37826992   0.00000229   0.00000000
               H    0.00124747   1.02598545  -0.00000000
               H    0.00124698  -0.51298894   0.88852731
               H    0.00124698  -0.51298894  -0.88852731
               F   -2.19522573   0.00000032  -0.00000000
               F    1.81321438  -0.00000053   0.00000000
               '''
mol.basis    = 'ccpvtz'
mol.unit     = 'A'
mol.ecp      = 'ccecp'
mol.charge   = -1
mol.spin     = 0
mol.symmetry = False
mol.cart     = True
mol.build()
### end generated system text ###



### generated calculation text ###
mf = dft.RKS(mol)
mf.xc = 'pbe'
e_scf = mf.kernel()
### end generated calculation text ###

savetxt('energy.dat', [[e_scf, 0.0]])#INFO: ******************** input file end ********************


System: uname_result(system='Linux', node='node1934.oscar.ccv.brown.edu', release='5.14.0-284.11.1.el9_2_cifs.x86_64', version='#1 SMP PREEMPT_DYNAMIC Tue Feb 20 16:51:59 EST 2024', machine='x86_64')  Threads 1
Python 3.11.0 (main, Jan 10 2024, 14:25:36) [GCC 11.3.1 20221121 (Red Hat 11.3.1-4)]
numpy 2.3.2  scipy 1.16.1  h5py 3.14.0
Date: Sun Aug 17 12:17:34 2025
PySCF version 2.10.0
PySCF path  /users/snirenbe/stalk_venv/lib64/python3.11/site-packages/pyscf

[CONFIG] conf_file None
[INPUT] verbose = 4
[INPUT] num. atoms = 6
[INPUT] num. electrons = 22
[INPUT] charge = -1
[INPUT] spin (= nelec alpha-beta = 2S) = 0
[INPUT] symmetry False subgroup None
[INPUT] Mole.unit = A
[INPUT] Cartesian GTO integrals (6d 10f)
[INPUT] Symbol           X                Y                Z      unit          X                Y                Z       unit  Magmom
[INPUT]  1 C      0.378269920000   0.000002290000   0.000000000000 AA    0.714826549961   0.000004327473   0.000000000000 Bohr   0.0
[INPUT]  2 H      0.001247470000   1.025985450000   0.000000000000 AA    0.002357376649   1.938831508289   0.000000000000 Bohr   0.0
[INPUT]  3 H      0.001246980000  -0.512988940000   0.888527310000 AA    0.002356450683  -0.969408601531   1.679073270097 Bohr   0.0
[INPUT]  4 H      0.001246980000  -0.512988940000  -0.888527310000 AA    0.002356450683  -0.969408601531  -1.679073270097 Bohr   0.0
[INPUT]  5 F     -2.195225730000   0.000000320000   0.000000000000 AA   -4.148375411298   0.000000604712   0.000000000000 Bohr   0.0
[INPUT]  6 F      1.813214380000  -0.000000530000   0.000000000000 AA    3.426478583323  -0.000001001555   0.000000000000 Bohr   0.0

nuclear repulsion = 39.1756771048902
number of shells = 45
number of NR pGTOs = 192
number of NR cGTOs = 150
basis = ccpvtz
ecp = ccecp
CPU time:         0.44


******** <class 'pyscf.dft.rks.RKS'> ********
method = RKS
initial guess = minao
damping factor = 0
level_shift factor = 0
DIIS = <class 'pyscf.scf.diis.CDIIS'>
diis_start_cycle = 1
diis_space = 8
diis_damp = 0
SCF conv_tol = 1e-09
SCF conv_tol_grad = None
SCF max_cycles = 50
direct_scf = True
direct_scf_tol = 1e-13
chkfile to save SCF result = /tmp/tmpb3utky8x
max_memory 4000 MB (current use 97 MB)
XC library pyscf.dft.libxc version 7.0.0
    S. Lehtola, C. Steigemann, M. J.T. Oliveira, and M. A.L. Marques.,  SoftwareX 7, 1–5 (2018)
XC functionals = pbe
    J. P. Perdew, K. Burke, and M. Ernzerhof.,  Phys. Rev. Lett. 77, 3865 (1996)
    J. P. Perdew, K. Burke, and M. Ernzerhof.,  Phys. Rev. Lett. 78, 1396 (1997)
    J. P. Perdew, K. Burke, and M. Ernzerhof.,  Phys. Rev. Lett. 77, 3865 (1996)
    J. P. Perdew, K. Burke, and M. Ernzerhof.,  Phys. Rev. Lett. 78, 1396 (1997)
radial grids: 
    Treutler-Ahlrichs [JCP 102, 346 (1995); DOI:10.1063/1.469408] (M4) radial grids
    
becke partition: Becke, JCP 88, 2547 (1988); DOI:10.1063/1.454033
pruning grids: <function nwchem_prune at 0x7f75628b49a0>
grids dens level: 3
symmetrized grids: False
atomic radii adjust function: <function treutler_atomic_radii_adjust at 0x7f75628b4900>
small_rho_cutoff = 1e-07
Set gradient conv threshold to 3.16228e-05
Initial guess from minao.
tot grids = 72072
init E= -37.5430303141329
  HOMO = -0.37005658215972  LUMO = -0.00572603524291034
cycle= 1 E= -55.7955517189742  delta_E= -18.3  |g|= 0.867  |ddm|= 1.89

WARN: HOMO 0.270995066970887 == LUMO 0.270995720111535

cycle= 2 E= -46.9650237153994  delta_E= 8.83  |g|= 4.48  |ddm|= 54.5
  HOMO = 0.0393130746743463  LUMO = 0.22664319557694
cycle= 3 E= -55.8809553919955  delta_E= -8.92  |g|= 0.591  |ddm|= 54.4
  HOMO = 0.0869112333477328  LUMO = 0.202674876800096
cycle= 4 E= -55.919215575735  delta_E= -0.0383  |g|= 0.383  |ddm|= 0.816
  HOMO = 0.0912417448011288  LUMO = 0.201513446107813
cycle= 5 E= -55.9401101972481  delta_E= -0.0209  |g|= 0.0888  |ddm|= 0.223
  HOMO = 0.088747385706725  LUMO = 0.205500842915689
cycle= 6 E= -55.9413572607809  delta_E= -0.00125  |g|= 0.0518  |ddm|= 0.0747
  HOMO = 0.0811837159361832  LUMO = 0.204584964625093
cycle= 7 E= -55.9418823924934  delta_E= -0.000525  |g|= 0.00993  |ddm|= 0.0617
  HOMO = 0.0798602549873737  LUMO = 0.204164138848017
cycle= 8 E= -55.9418976202121  delta_E= -1.52e-05  |g|= 0.00237  |ddm|= 0.0104
  HOMO = 0.0796441119938873  LUMO = 0.20417872853347
cycle= 9 E= -55.9418985694795  delta_E= -9.49e-07  |g|= 0.000207  |ddm|= 0.00245
  HOMO = 0.0796423425734963  LUMO = 0.204184887709206
cycle= 10 E= -55.9418985791982  delta_E= -9.72e-09  |g|= 2.12e-05  |ddm|= 0.000219
  HOMO = 0.0796453621883666  LUMO = 0.204185657025878
cycle= 11 E= -55.9418985792845  delta_E= -8.63e-11  |g|= 2.92e-06  |ddm|= 2.53e-05
  HOMO = 0.0796461149487567  LUMO = 0.204185389758459
Extra cycle  E= -55.9418985792815  delta_E= 2.96e-12  |g|= 5.25e-06  |ddm|= 9.23e-06
converged SCF energy = -55.9418985792815
