#INFO: **** input file is /oscar/home/snirenbe/stalk_pca/examples/nexus/sn2_pca/tpw/image_0/hessian/eqm_p2+0.001/scf.py ****
#!/usr/bin/env python3

from pyscf import dft
from numpy import savetxt


### generated system text ###
from pyscf import gto as gto_loc
mol = gto_loc.Mole()
mol.verbose  = 4
mol.atom     = '''
               C    0.37950398   0.00000153   0.00000000
               H    0.00084925   1.02651476  -0.00000000
               H    0.00084838  -0.51325491   0.88898644
               H    0.00084838  -0.51325491  -0.88898644
               F   -2.19552499   0.00000190  -0.00000000
               F    1.81347501   0.00000127   0.00000000
               '''
mol.basis    = 'ccpvtz'
mol.unit     = 'A'
mol.ecp      = 'ccecp'
mol.charge   = -1
mol.spin     = 0
mol.symmetry = False
mol.cart     = True
mol.build()
### end generated system text ###



### generated calculation text ###
mf = dft.RKS(mol)
mf.xc = 'pbe'
e_scf = mf.kernel()
### end generated calculation text ###

savetxt('energy.dat', [[e_scf, 0.0]])#INFO: ******************** input file end ********************


System: uname_result(system='Linux', node='node1934.oscar.ccv.brown.edu', release='5.14.0-284.11.1.el9_2_cifs.x86_64', version='#1 SMP PREEMPT_DYNAMIC Tue Feb 20 16:51:59 EST 2024', machine='x86_64')  Threads 1
Python 3.11.0 (main, Jan 10 2024, 14:25:36) [GCC 11.3.1 20221121 (Red Hat 11.3.1-4)]
numpy 2.3.2  scipy 1.16.1  h5py 3.14.0
Date: Sun Aug 17 12:17:34 2025
PySCF version 2.10.0
PySCF path  /users/snirenbe/stalk_venv/lib64/python3.11/site-packages/pyscf

[CONFIG] conf_file None
[INPUT] verbose = 4
[INPUT] num. atoms = 6
[INPUT] num. electrons = 22
[INPUT] charge = -1
[INPUT] spin (= nelec alpha-beta = 2S) = 0
[INPUT] symmetry False subgroup None
[INPUT] Mole.unit = A
[INPUT] Cartesian GTO integrals (6d 10f)
[INPUT] Symbol           X                Y                Z      unit          X                Y                Z       unit  Magmom
[INPUT]  1 C      0.379503980000   0.000001530000   0.000000000000 AA    0.717158585382   0.000002891281   0.000000000000 Bohr   0.0
[INPUT]  2 H      0.000849250000   1.026514760000   0.000000000000 AA    0.001604849911   1.939831759224   0.000000000000 Bohr   0.0
[INPUT]  3 H      0.000848380000  -0.513254910000   0.888986440000 AA    0.001603205850  -0.969911211988   1.679940900052 Bohr   0.0
[INPUT]  4 H      0.000848380000  -0.513254910000  -0.888986440000 AA    0.001603205850  -0.969911211988  -1.679940900052 Bohr   0.0
[INPUT]  5 F     -2.195524990000   0.000001900000   0.000000000000 AA   -4.148940930738   0.000003590480   0.000000000000 Bohr   0.0
[INPUT]  6 F      1.813475010000   0.000001270000   0.000000000000 AA    3.426971102643   0.000002399952   0.000000000000 Bohr   0.0

nuclear repulsion = 39.1698638173958
number of shells = 45
number of NR pGTOs = 192
number of NR cGTOs = 150
basis = ccpvtz
ecp = ccecp
CPU time:         0.43


******** <class 'pyscf.dft.rks.RKS'> ********
method = RKS
initial guess = minao
damping factor = 0
level_shift factor = 0
DIIS = <class 'pyscf.scf.diis.CDIIS'>
diis_start_cycle = 1
diis_space = 8
diis_damp = 0
SCF conv_tol = 1e-09
SCF conv_tol_grad = None
SCF max_cycles = 50
direct_scf = True
direct_scf_tol = 1e-13
chkfile to save SCF result = /tmp/tmphol4dwna
max_memory 4000 MB (current use 97 MB)
XC library pyscf.dft.libxc version 7.0.0
    S. Lehtola, C. Steigemann, M. J.T. Oliveira, and M. A.L. Marques.,  SoftwareX 7, 1–5 (2018)
XC functionals = pbe
    J. P. Perdew, K. Burke, and M. Ernzerhof.,  Phys. Rev. Lett. 77, 3865 (1996)
    J. P. Perdew, K. Burke, and M. Ernzerhof.,  Phys. Rev. Lett. 78, 1396 (1997)
    J. P. Perdew, K. Burke, and M. Ernzerhof.,  Phys. Rev. Lett. 77, 3865 (1996)
    J. P. Perdew, K. Burke, and M. Ernzerhof.,  Phys. Rev. Lett. 78, 1396 (1997)
radial grids: 
    Treutler-Ahlrichs [JCP 102, 346 (1995); DOI:10.1063/1.469408] (M4) radial grids
    
becke partition: Becke, JCP 88, 2547 (1988); DOI:10.1063/1.454033
pruning grids: <function nwchem_prune at 0x7fd8c6f14860>
grids dens level: 3
symmetrized grids: False
atomic radii adjust function: <function treutler_atomic_radii_adjust at 0x7fd8c6f147c0>
small_rho_cutoff = 1e-07
Set gradient conv threshold to 3.16228e-05
Initial guess from minao.
tot grids = 72072
init E= -37.5432805398152
  HOMO = -0.369733973695221  LUMO = -0.00533514344357172
cycle= 1 E= -55.7955655714009  delta_E= -18.3  |g|= 0.866  |ddm|= 1.89

WARN: HOMO 0.270901161760496 == LUMO 0.270901865075272

cycle= 2 E= -46.9574459097613  delta_E= 8.84  |g|= 4.47  |ddm|= 54.4
  HOMO = 0.0392485855181932  LUMO = 0.22660490084924
cycle= 3 E= -55.8810101226237  delta_E= -8.92  |g|= 0.59  |ddm|= 54.2
  HOMO = 0.0868920539079094  LUMO = 0.202659107081184
cycle= 4 E= -55.9192356318277  delta_E= -0.0382  |g|= 0.383  |ddm|= 0.816
  HOMO = 0.0913047054270619  LUMO = 0.201486430274607
cycle= 5 E= -55.94010303544  delta_E= -0.0209  |g|= 0.0887  |ddm|= 0.223
  HOMO = 0.088804879817776  LUMO = 0.205471131063199
cycle= 6 E= -55.9413448418614  delta_E= -0.00124  |g|= 0.0517  |ddm|= 0.0747
  HOMO = 0.0812613642015061  LUMO = 0.204557998471875
cycle= 7 E= -55.9418692260886  delta_E= -0.000524  |g|= 0.00996  |ddm|= 0.0617
  HOMO = 0.079931258835789  LUMO = 0.204137294555519
cycle= 8 E= -55.9418845573429  delta_E= -1.53e-05  |g|= 0.00239  |ddm|= 0.0105
  HOMO = 0.0797132970002121  LUMO = 0.204152033568201
cycle= 9 E= -55.9418855199957  delta_E= -9.63e-07  |g|= 0.000207  |ddm|= 0.00247
  HOMO = 0.0797115865801811  LUMO = 0.204158190636106
cycle= 10 E= -55.9418855296528  delta_E= -9.66e-09  |g|= 2.12e-05  |ddm|= 0.000218
  HOMO = 0.0797146034634925  LUMO = 0.204158948792925
cycle= 11 E= -55.9418855297395  delta_E= -8.67e-11  |g|= 2.91e-06  |ddm|= 2.54e-05
  HOMO = 0.0797153505541169  LUMO = 0.204158683462635
Extra cycle  E= -55.9418855297364  delta_E= 3.07e-12  |g|= 5.2e-06  |ddm|= 9.19e-06
converged SCF energy = -55.9418855297364
