#INFO: **** input file is /oscar/home/snirenbe/stalk_pca/examples/nexus/sn2_pca/tpw/image_0/hessian/eqm_p0-0.001_p1-0.001/scf.py ****
#!/usr/bin/env python3

from pyscf import dft
from numpy import savetxt


### generated system text ###
from pyscf import gto as gto_loc
mol = gto_loc.Mole()
mol.verbose  = 4
mol.atom     = '''
               C    0.37826992   0.00000152   0.00000000
               H    0.00124747   1.02674333  -0.00000000
               H    0.00124698  -0.51336921   0.88918439
               H    0.00124698  -0.51336921  -0.88918439
               F   -2.19485635   0.00000204  -0.00000000
               F    1.81284499   0.00000119   0.00000000
               '''
mol.basis    = 'ccpvtz'
mol.unit     = 'A'
mol.ecp      = 'ccecp'
mol.charge   = -1
mol.spin     = 0
mol.symmetry = False
mol.cart     = True
mol.build()
### end generated system text ###



### generated calculation text ###
mf = dft.RKS(mol)
mf.xc = 'pbe'
e_scf = mf.kernel()
### end generated calculation text ###

savetxt('energy.dat', [[e_scf, 0.0]])#INFO: ******************** input file end ********************


System: uname_result(system='Linux', node='node1934.oscar.ccv.brown.edu', release='5.14.0-284.11.1.el9_2_cifs.x86_64', version='#1 SMP PREEMPT_DYNAMIC Tue Feb 20 16:51:59 EST 2024', machine='x86_64')  Threads 1
Python 3.11.0 (main, Jan 10 2024, 14:25:36) [GCC 11.3.1 20221121 (Red Hat 11.3.1-4)]
numpy 2.3.2  scipy 1.16.1  h5py 3.14.0
Date: Sun Aug 17 12:17:34 2025
PySCF version 2.10.0
PySCF path  /users/snirenbe/stalk_venv/lib64/python3.11/site-packages/pyscf

[CONFIG] conf_file None
[INPUT] verbose = 4
[INPUT] num. atoms = 6
[INPUT] num. electrons = 22
[INPUT] charge = -1
[INPUT] spin (= nelec alpha-beta = 2S) = 0
[INPUT] symmetry False subgroup None
[INPUT] Mole.unit = A
[INPUT] Cartesian GTO integrals (6d 10f)
[INPUT] Symbol           X                Y                Z      unit          X                Y                Z       unit  Magmom
[INPUT]  1 C      0.378269920000   0.000001520000   0.000000000000 AA    0.714826549961   0.000002872384   0.000000000000 Bohr   0.0
[INPUT]  2 H      0.001247470000   1.026743330000   0.000000000000 AA    0.002357376649   1.940263693924   0.000000000000 Bohr   0.0
[INPUT]  3 H      0.001246980000  -0.513369210000   0.889184390000 AA    0.002356450683  -0.970127207684   1.680314971338 Bohr   0.0
[INPUT]  4 H      0.001246980000  -0.513369210000  -0.889184390000 AA    0.002356450683  -0.970127207684  -1.680314971338 Bohr   0.0
[INPUT]  5 F     -2.194856350000   0.000002040000   0.000000000000 AA   -4.147677384263   0.000003855041   0.000000000000 Bohr   0.0
[INPUT]  6 F      1.812844990000   0.000001190000   0.000000000000 AA    3.425780537390   0.000002248774   0.000000000000 Bohr   0.0

nuclear repulsion = 39.17580240566
number of shells = 45
number of NR pGTOs = 192
number of NR cGTOs = 150
basis = ccpvtz
ecp = ccecp
CPU time:         0.44


******** <class 'pyscf.dft.rks.RKS'> ********
method = RKS
initial guess = minao
damping factor = 0
level_shift factor = 0
DIIS = <class 'pyscf.scf.diis.CDIIS'>
diis_start_cycle = 1
diis_space = 8
diis_damp = 0
SCF conv_tol = 1e-09
SCF conv_tol_grad = None
SCF max_cycles = 50
direct_scf = True
direct_scf_tol = 1e-13
chkfile to save SCF result = /tmp/tmpshkxp9yd
max_memory 4000 MB (current use 97 MB)
XC library pyscf.dft.libxc version 7.0.0
    S. Lehtola, C. Steigemann, M. J.T. Oliveira, and M. A.L. Marques.,  SoftwareX 7, 1–5 (2018)
XC functionals = pbe
    J. P. Perdew, K. Burke, and M. Ernzerhof.,  Phys. Rev. Lett. 77, 3865 (1996)
    J. P. Perdew, K. Burke, and M. Ernzerhof.,  Phys. Rev. Lett. 78, 1396 (1997)
    J. P. Perdew, K. Burke, and M. Ernzerhof.,  Phys. Rev. Lett. 77, 3865 (1996)
    J. P. Perdew, K. Burke, and M. Ernzerhof.,  Phys. Rev. Lett. 78, 1396 (1997)
radial grids: 
    Treutler-Ahlrichs [JCP 102, 346 (1995); DOI:10.1063/1.469408] (M4) radial grids
    
becke partition: Becke, JCP 88, 2547 (1988); DOI:10.1063/1.454033
pruning grids: <function nwchem_prune at 0x7f2ec3da89a0>
grids dens level: 3
symmetrized grids: False
atomic radii adjust function: <function treutler_atomic_radii_adjust at 0x7f2ec3da8900>
small_rho_cutoff = 1e-07
Set gradient conv threshold to 3.16228e-05
Initial guess from minao.
tot grids = 72072
init E= -37.5430853741053
  HOMO = -0.369874029608292  LUMO = -0.00555303843690987
cycle= 1 E= -55.7955492236781  delta_E= -18.3  |g|= 0.867  |ddm|= 1.89

WARN: HOMO 0.270898985183328 == LUMO 0.270899681035457

cycle= 2 E= -46.9622068091991  delta_E= 8.83  |g|= 4.47  |ddm|= 54.4
  HOMO = 0.0392121373995134  LUMO = 0.226586744280785
cycle= 3 E= -55.8809346635068  delta_E= -8.92  |g|= 0.591  |ddm|= 54.3
  HOMO = 0.0868943347230554  LUMO = 0.202659670500108
cycle= 4 E= -55.9192126447236  delta_E= -0.0383  |g|= 0.383  |ddm|= 0.816
  HOMO = 0.0912668002705612  LUMO = 0.201469963570098
cycle= 5 E= -55.9401114461644  delta_E= -0.0209  |g|= 0.0887  |ddm|= 0.223
  HOMO = 0.0887768506551547  LUMO = 0.205458511874639
cycle= 6 E= -55.9413557291255  delta_E= -0.00124  |g|= 0.0518  |ddm|= 0.0747
  HOMO = 0.0812223721408992  LUMO = 0.204542557911417
cycle= 7 E= -55.94188074556  delta_E= -0.000525  |g|= 0.00994  |ddm|= 0.0616
  HOMO = 0.0798946029987305  LUMO = 0.204121867233609
cycle= 8 E= -55.9418960321953  delta_E= -1.53e-05  |g|= 0.00237  |ddm|= 0.0104
  HOMO = 0.0796781795101377  LUMO = 0.204136543446117
cycle= 9 E= -55.9418969822755  delta_E= -9.5e-07  |g|= 0.000207  |ddm|= 0.00246
  HOMO = 0.0796764484742365  LUMO = 0.204142686140655
cycle= 10 E= -55.9418969919907  delta_E= -9.72e-09  |g|= 2.12e-05  |ddm|= 0.000219
  HOMO = 0.0796794688028905  LUMO = 0.204143452993927
cycle= 11 E= -55.9418969920775  delta_E= -8.68e-11  |g|= 2.92e-06  |ddm|= 2.53e-05
  HOMO = 0.0796802187866957  LUMO = 0.204143186522942
Extra cycle  E= -55.9418969920743  delta_E= 3.13e-12  |g|= 5.23e-06  |ddm|= 9.2e-06
converged SCF energy = -55.9418969920743
