#INFO: **** input file is /oscar/home/snirenbe/stalk_pca/examples/nexus/sn2_pca/tpw/image_0/hessian/eqm_p1-0.001_p3-0.001/scf.py ****
#!/usr/bin/env python3

from pyscf import dft
from numpy import savetxt


### generated system text ###
from pyscf import gto as gto_loc
mol = gto_loc.Mole()
mol.verbose  = 4
mol.atom     = '''
               C    0.37907653   0.00000228   0.00000000
               H    0.00125712   1.02621402  -0.00000000
               H    0.00125664  -0.51310324   0.88872526
               H    0.00125664  -0.51310324  -0.88872526
               F   -2.19499419   0.00000034  -0.00000000
               F    1.81214726  -0.00000051   0.00000000
               '''
mol.basis    = 'ccpvtz'
mol.unit     = 'A'
mol.ecp      = 'ccecp'
mol.charge   = -1
mol.spin     = 0
mol.symmetry = False
mol.cart     = True
mol.build()
### end generated system text ###



### generated calculation text ###
mf = dft.RKS(mol)
mf.xc = 'pbe'
e_scf = mf.kernel()
### end generated calculation text ###

savetxt('energy.dat', [[e_scf, 0.0]])#INFO: ******************** input file end ********************


System: uname_result(system='Linux', node='node1934.oscar.ccv.brown.edu', release='5.14.0-284.11.1.el9_2_cifs.x86_64', version='#1 SMP PREEMPT_DYNAMIC Tue Feb 20 16:51:59 EST 2024', machine='x86_64')  Threads 1
Python 3.11.0 (main, Jan 10 2024, 14:25:36) [GCC 11.3.1 20221121 (Red Hat 11.3.1-4)]
numpy 2.3.2  scipy 1.16.1  h5py 3.14.0
Date: Sun Aug 17 12:17:34 2025
PySCF version 2.10.0
PySCF path  /users/snirenbe/stalk_venv/lib64/python3.11/site-packages/pyscf

[CONFIG] conf_file None
[INPUT] verbose = 4
[INPUT] num. atoms = 6
[INPUT] num. electrons = 22
[INPUT] charge = -1
[INPUT] spin (= nelec alpha-beta = 2S) = 0
[INPUT] symmetry False subgroup None
[INPUT] Mole.unit = A
[INPUT] Cartesian GTO integrals (6d 10f)
[INPUT] Symbol           X                Y                Z      unit          X                Y                Z       unit  Magmom
[INPUT]  1 C      0.379076530000   0.000002280000   0.000000000000 AA    0.716350821950   0.000004308576   0.000000000000 Bohr   0.0
[INPUT]  2 H      0.001257120000   1.026214020000   0.000000000000 AA    0.002375612506   1.939263442989   0.000000000000 Bohr   0.0
[INPUT]  3 H      0.001256640000  -0.513103240000   0.888725260000 AA    0.002374705437  -0.969624597227   1.679447341383 Bohr   0.0
[INPUT]  4 H      0.001256640000  -0.513103240000  -0.888725260000 AA    0.002374705437  -0.969624597227  -1.679447341383 Bohr   0.0
[INPUT]  5 F     -2.194994190000   0.000000340000   0.000000000000 AA   -4.147937864112   0.000000642507   0.000000000000 Bohr   0.0
[INPUT]  6 F      1.812147260000  -0.000000510000   0.000000000000 AA    3.424462018781  -0.000000963760   0.000000000000 Bohr   0.0

nuclear repulsion = 39.1894985306599
number of shells = 45
number of NR pGTOs = 192
number of NR cGTOs = 150
basis = ccpvtz
ecp = ccecp
CPU time:         0.42


******** <class 'pyscf.dft.rks.RKS'> ********
method = RKS
initial guess = minao
damping factor = 0
level_shift factor = 0
DIIS = <class 'pyscf.scf.diis.CDIIS'>
diis_start_cycle = 1
diis_space = 8
diis_damp = 0
SCF conv_tol = 1e-09
SCF conv_tol_grad = None
SCF max_cycles = 50
direct_scf = True
direct_scf_tol = 1e-13
chkfile to save SCF result = /tmp/tmpnr9c72oc
max_memory 4000 MB (current use 97 MB)
XC library pyscf.dft.libxc version 7.0.0
    S. Lehtola, C. Steigemann, M. J.T. Oliveira, and M. A.L. Marques.,  SoftwareX 7, 1–5 (2018)
XC functionals = pbe
    J. P. Perdew, K. Burke, and M. Ernzerhof.,  Phys. Rev. Lett. 77, 3865 (1996)
    J. P. Perdew, K. Burke, and M. Ernzerhof.,  Phys. Rev. Lett. 78, 1396 (1997)
    J. P. Perdew, K. Burke, and M. Ernzerhof.,  Phys. Rev. Lett. 77, 3865 (1996)
    J. P. Perdew, K. Burke, and M. Ernzerhof.,  Phys. Rev. Lett. 78, 1396 (1997)
radial grids: 
    Treutler-Ahlrichs [JCP 102, 346 (1995); DOI:10.1063/1.469408] (M4) radial grids
    
becke partition: Becke, JCP 88, 2547 (1988); DOI:10.1063/1.454033
pruning grids: <function nwchem_prune at 0x7f9d1982c9a0>
grids dens level: 3
symmetrized grids: False
atomic radii adjust function: <function treutler_atomic_radii_adjust at 0x7f9d1982c900>
small_rho_cutoff = 1e-07
Set gradient conv threshold to 3.16228e-05
Initial guess from minao.
tot grids = 72072
init E= -37.5439499468425
  HOMO = -0.369809326438384  LUMO = -0.0051566209051384
cycle= 1 E= -55.7955690470629  delta_E= -18.3  |g|= 0.866  |ddm|= 1.89

WARN: HOMO 0.271063547636977 == LUMO 0.271064206372536

cycle= 2 E= -46.9763370945732  delta_E= 8.82  |g|= 4.48  |ddm|= 54.5
  HOMO = 0.0395172005635306  LUMO = 0.226656954298275
cycle= 3 E= -55.8812431834695  delta_E= -8.9  |g|= 0.589  |ddm|= 54.4
  HOMO = 0.0871079950426751  LUMO = 0.202694915425123
cycle= 4 E= -55.9192887537248  delta_E= -0.038  |g|= 0.382  |ddm|= 0.815
  HOMO = 0.0914157686673357  LUMO = 0.201559236700442
cycle= 5 E= -55.940107026782  delta_E= -0.0208  |g|= 0.0885  |ddm|= 0.223
  HOMO = 0.0888597851965767  LUMO = 0.205523078947133
cycle= 6 E= -55.9413415130564  delta_E= -0.00123  |g|= 0.0515  |ddm|= 0.0747
  HOMO = 0.081336733598611  LUMO = 0.204605499316059
cycle= 7 E= -55.941862000525  delta_E= -0.00052  |g|= 0.00987  |ddm|= 0.0614
  HOMO = 0.0800217058135891  LUMO = 0.204187258288844
cycle= 8 E= -55.9418770397572  delta_E= -1.5e-05  |g|= 0.00236  |ddm|= 0.0103
  HOMO = 0.0798070160005085  LUMO = 0.204201742251317
cycle= 9 E= -55.9418779804157  delta_E= -9.41e-07  |g|= 0.000205  |ddm|= 0.00244
  HOMO = 0.0798053458750448  LUMO = 0.204207869685064
cycle= 10 E= -55.941877989917  delta_E= -9.5e-09  |g|= 2.09e-05  |ddm|= 0.000217
  HOMO = 0.0798083192001047  LUMO = 0.204208625351049
cycle= 11 E= -55.9418779900017  delta_E= -8.47e-11  |g|= 2.88e-06  |ddm|= 2.5e-05
  HOMO = 0.0798090540373744  LUMO = 0.204208362328166
Extra cycle  E= -55.9418779899986  delta_E= 3.06e-12  |g|= 5.13e-06  |ddm|= 9.05e-06
converged SCF energy = -55.9418779899986
