#INFO: **** input file is /oscar/home/snirenbe/stalk_pca/examples/nexus/sn2_pca/tpw/image_0/hessian/eqm_p2+0.001_p3-0.001/scf.py ****
#!/usr/bin/env python3

from pyscf import dft
from numpy import savetxt


### generated system text ###
from pyscf import gto as gto_loc
mol = gto_loc.Mole()
mol.verbose  = 4
mol.atom     = '''
               C    0.37950398   0.00000229   0.00000000
               H    0.00084925   1.02598545  -0.00000000
               H    0.00084838  -0.51298894   0.88852731
               H    0.00084838  -0.51298894  -0.88852731
               F   -2.19524505   0.00000021  -0.00000000
               F    1.81319506  -0.00000042   0.00000000
               '''
mol.basis    = 'ccpvtz'
mol.unit     = 'A'
mol.ecp      = 'ccecp'
mol.charge   = -1
mol.spin     = 0
mol.symmetry = False
mol.cart     = True
mol.build()
### end generated system text ###



### generated calculation text ###
mf = dft.RKS(mol)
mf.xc = 'pbe'
e_scf = mf.kernel()
### end generated calculation text ###

savetxt('energy.dat', [[e_scf, 0.0]])#INFO: ******************** input file end ********************


System: uname_result(system='Linux', node='node1934.oscar.ccv.brown.edu', release='5.14.0-284.11.1.el9_2_cifs.x86_64', version='#1 SMP PREEMPT_DYNAMIC Tue Feb 20 16:51:59 EST 2024', machine='x86_64')  Threads 1
Python 3.11.0 (main, Jan 10 2024, 14:25:36) [GCC 11.3.1 20221121 (Red Hat 11.3.1-4)]
numpy 2.3.2  scipy 1.16.1  h5py 3.14.0
Date: Sun Aug 17 12:17:34 2025
PySCF version 2.10.0
PySCF path  /users/snirenbe/stalk_venv/lib64/python3.11/site-packages/pyscf

[CONFIG] conf_file None
[INPUT] verbose = 4
[INPUT] num. atoms = 6
[INPUT] num. electrons = 22
[INPUT] charge = -1
[INPUT] spin (= nelec alpha-beta = 2S) = 0
[INPUT] symmetry False subgroup None
[INPUT] Mole.unit = A
[INPUT] Cartesian GTO integrals (6d 10f)
[INPUT] Symbol           X                Y                Z      unit          X                Y                Z       unit  Magmom
[INPUT]  1 C      0.379503980000   0.000002290000   0.000000000000 AA    0.717158585382   0.000004327473   0.000000000000 Bohr   0.0
[INPUT]  2 H      0.000849250000   1.025985450000   0.000000000000 AA    0.001604849911   1.938831508289   0.000000000000 Bohr   0.0
[INPUT]  3 H      0.000848380000  -0.512988940000   0.888527310000 AA    0.001603205850  -0.969408601531   1.679073270097 Bohr   0.0
[INPUT]  4 H      0.000848380000  -0.512988940000  -0.888527310000 AA    0.001603205850  -0.969408601531  -1.679073270097 Bohr   0.0
[INPUT]  5 F     -2.195245050000   0.000000210000   0.000000000000 AA   -4.148411920807   0.000000396842   0.000000000000 Bohr   0.0
[INPUT]  6 F      1.813195060000  -0.000000420000   0.000000000000 AA    3.426442073814  -0.000000793685   0.000000000000 Bohr   0.0

nuclear repulsion = 39.1787087051116
number of shells = 45
number of NR pGTOs = 192
number of NR cGTOs = 150
basis = ccpvtz
ecp = ccecp
CPU time:         0.41


******** <class 'pyscf.dft.rks.RKS'> ********
method = RKS
initial guess = minao
damping factor = 0
level_shift factor = 0
DIIS = <class 'pyscf.scf.diis.CDIIS'>
diis_start_cycle = 1
diis_space = 8
diis_damp = 0
SCF conv_tol = 1e-09
SCF conv_tol_grad = None
SCF max_cycles = 50
direct_scf = True
direct_scf_tol = 1e-13
chkfile to save SCF result = /tmp/tmpucguo1sm
max_memory 4000 MB (current use 97 MB)
XC library pyscf.dft.libxc version 7.0.0
    S. Lehtola, C. Steigemann, M. J.T. Oliveira, and M. A.L. Marques.,  SoftwareX 7, 1–5 (2018)
XC functionals = pbe
    J. P. Perdew, K. Burke, and M. Ernzerhof.,  Phys. Rev. Lett. 77, 3865 (1996)
    J. P. Perdew, K. Burke, and M. Ernzerhof.,  Phys. Rev. Lett. 78, 1396 (1997)
    J. P. Perdew, K. Burke, and M. Ernzerhof.,  Phys. Rev. Lett. 77, 3865 (1996)
    J. P. Perdew, K. Burke, and M. Ernzerhof.,  Phys. Rev. Lett. 78, 1396 (1997)
radial grids: 
    Treutler-Ahlrichs [JCP 102, 346 (1995); DOI:10.1063/1.469408] (M4) radial grids
    
becke partition: Becke, JCP 88, 2547 (1988); DOI:10.1063/1.454033
pruning grids: <function nwchem_prune at 0x7f97e1e949a0>
grids dens level: 3
symmetrized grids: False
atomic radii adjust function: <function treutler_atomic_radii_adjust at 0x7f97e1e94900>
small_rho_cutoff = 1e-07
Set gradient conv threshold to 3.16228e-05
Initial guess from minao.
tot grids = 72072
init E= -37.5435673941423
  HOMO = -0.369821619422122  LUMO = -0.00530228088240203
cycle= 1 E= -55.7955766355018  delta_E= -18.3  |g|= 0.866  |ddm|= 1.89

WARN: HOMO 0.271020843499376 == LUMO 0.271021507220917

cycle= 2 E= -46.9678892304573  delta_E= 8.83  |g|= 4.48  |ddm|= 54.5
  HOMO = 0.039446987800971  LUMO = 0.22665949198411
cycle= 3 E= -55.8811384694893  delta_E= -8.91  |g|= 0.59  |ddm|= 54.3
  HOMO = 0.0869890344673049  LUMO = 0.202696247847241
cycle= 4 E= -55.919262874266  delta_E= -0.0381  |g|= 0.382  |ddm|= 0.816
  HOMO = 0.0913298164968995  LUMO = 0.201557878751869
cycle= 5 E= -55.9401077278522  delta_E= -0.0208  |g|= 0.0886  |ddm|= 0.223
  HOMO = 0.0887977256502524  LUMO = 0.205531007071784
cycle= 6 E= -55.9413473991868  delta_E= -0.00124  |g|= 0.0516  |ddm|= 0.0747
  HOMO = 0.0812601808334234  LUMO = 0.204615671819095
cycle= 7 E= -55.9418699740359  delta_E= -0.000523  |g|= 0.00991  |ddm|= 0.0616
  HOMO = 0.0799395485639243  LUMO = 0.204195968301617
cycle= 8 E= -55.9418851377973  delta_E= -1.52e-05  |g|= 0.00238  |ddm|= 0.0104
  HOMO = 0.0797231412149065  LUMO = 0.204210572505752
cycle= 9 E= -55.94188609138  delta_E= -9.54e-07  |g|= 0.000206  |ddm|= 0.00246
  HOMO = 0.0797214256754967  LUMO = 0.204216722659548
cycle= 10 E= -55.9418861009624  delta_E= -9.58e-09  |g|= 2.11e-05  |ddm|= 0.000218
  HOMO = 0.0797244215709037  LUMO = 0.204217480340572
cycle= 11 E= -55.9418861010477  delta_E= -8.53e-11  |g|= 2.89e-06  |ddm|= 2.52e-05
  HOMO = 0.0797251637790486  LUMO = 0.20421721570581
Extra cycle  E= -55.9418861010448  delta_E= 2.94e-12  |g|= 5.17e-06  |ddm|= 9.14e-06
converged SCF energy = -55.9418861010448
