#INFO: **** input file is /oscar/home/snirenbe/stalk_pca/examples/nexus/sn2_pca/tpw/image_0/hessian/eqm_p2+0.001_p3+0.001/scf.py ****
#!/usr/bin/env python3

from pyscf import dft
from numpy import savetxt


### generated system text ###
from pyscf import gto as gto_loc
mol = gto_loc.Mole()
mol.verbose  = 4
mol.atom     = '''
               C    0.37950398   0.00000076  -0.00000000
               H    0.00084925   1.02704407  -0.00000000
               H    0.00084838  -0.51352088   0.88944558
               H    0.00084838  -0.51352088  -0.88944558
               F   -2.19580494   0.00000360   0.00000000
               F    1.81375495   0.00000296  -0.00000000
               '''
mol.basis    = 'ccpvtz'
mol.unit     = 'A'
mol.ecp      = 'ccecp'
mol.charge   = -1
mol.spin     = 0
mol.symmetry = False
mol.cart     = True
mol.build()
### end generated system text ###



### generated calculation text ###
mf = dft.RKS(mol)
mf.xc = 'pbe'
e_scf = mf.kernel()
### end generated calculation text ###

savetxt('energy.dat', [[e_scf, 0.0]])#INFO: ******************** input file end ********************


System: uname_result(system='Linux', node='node1934.oscar.ccv.brown.edu', release='5.14.0-284.11.1.el9_2_cifs.x86_64', version='#1 SMP PREEMPT_DYNAMIC Tue Feb 20 16:51:59 EST 2024', machine='x86_64')  Threads 1
Python 3.11.0 (main, Jan 10 2024, 14:25:36) [GCC 11.3.1 20221121 (Red Hat 11.3.1-4)]
numpy 2.3.2  scipy 1.16.1  h5py 3.14.0
Date: Sun Aug 17 12:17:34 2025
PySCF version 2.10.0
PySCF path  /users/snirenbe/stalk_venv/lib64/python3.11/site-packages/pyscf

[CONFIG] conf_file None
[INPUT] verbose = 4
[INPUT] num. atoms = 6
[INPUT] num. electrons = 22
[INPUT] charge = -1
[INPUT] spin (= nelec alpha-beta = 2S) = 0
[INPUT] symmetry False subgroup None
[INPUT] Mole.unit = A
[INPUT] Cartesian GTO integrals (6d 10f)
[INPUT] Symbol           X                Y                Z      unit          X                Y                Z       unit  Magmom
[INPUT]  1 C      0.379503980000   0.000000760000   0.000000000000 AA    0.717158585382   0.000001436192   0.000000000000 Bohr   0.0
[INPUT]  2 H      0.000849250000   1.027044070000   0.000000000000 AA    0.001604849911   1.940832010159   0.000000000000 Bohr   0.0
[INPUT]  3 H      0.000848380000  -0.513520880000   0.889445580000 AA    0.001603205850  -0.970413822446   1.680808548905 Bohr   0.0
[INPUT]  4 H      0.000848380000  -0.513520880000  -0.889445580000 AA    0.001603205850  -0.970413822446  -1.680808548905 Bohr   0.0
[INPUT]  5 F     -2.195804940000   0.000003600000   0.000000000000 AA   -4.149469959567   0.000006803014   0.000000000000 Bohr   0.0
[INPUT]  6 F      1.813754950000   0.000002960000   0.000000000000 AA    3.427500112574   0.000005593589   0.000000000000 Bohr   0.0

nuclear repulsion = 39.1610235795489
number of shells = 45
number of NR pGTOs = 192
number of NR cGTOs = 150
basis = ccpvtz
ecp = ccecp
CPU time:         0.42


******** <class 'pyscf.dft.rks.RKS'> ********
method = RKS
initial guess = minao
damping factor = 0
level_shift factor = 0
DIIS = <class 'pyscf.scf.diis.CDIIS'>
diis_start_cycle = 1
diis_space = 8
diis_damp = 0
SCF conv_tol = 1e-09
SCF conv_tol_grad = None
SCF max_cycles = 50
direct_scf = True
direct_scf_tol = 1e-13
chkfile to save SCF result = /tmp/tmpl86hvaq8
max_memory 4000 MB (current use 97 MB)
XC library pyscf.dft.libxc version 7.0.0
    S. Lehtola, C. Steigemann, M. J.T. Oliveira, and M. A.L. Marques.,  SoftwareX 7, 1–5 (2018)
XC functionals = pbe
    J. P. Perdew, K. Burke, and M. Ernzerhof.,  Phys. Rev. Lett. 77, 3865 (1996)
    J. P. Perdew, K. Burke, and M. Ernzerhof.,  Phys. Rev. Lett. 78, 1396 (1997)
    J. P. Perdew, K. Burke, and M. Ernzerhof.,  Phys. Rev. Lett. 77, 3865 (1996)
    J. P. Perdew, K. Burke, and M. Ernzerhof.,  Phys. Rev. Lett. 78, 1396 (1997)
radial grids: 
    Treutler-Ahlrichs [JCP 102, 346 (1995); DOI:10.1063/1.469408] (M4) radial grids
    
becke partition: Becke, JCP 88, 2547 (1988); DOI:10.1063/1.454033
pruning grids: <function nwchem_prune at 0x7f76ecd949a0>
grids dens level: 3
symmetrized grids: False
atomic radii adjust function: <function treutler_atomic_radii_adjust at 0x7f76ecd94900>
small_rho_cutoff = 1e-07
Set gradient conv threshold to 3.16228e-05
Initial guess from minao.
tot grids = 72072
init E= -37.5429931699733
  HOMO = -0.369646280881947  LUMO = -0.00536809254294098
cycle= 1 E= -55.7955532996821  delta_E= -18.3  |g|= 0.867  |ddm|= 1.88

WARN: HOMO 0.270781205925528 == LUMO 0.270781949083053

cycle= 2 E= -46.9470136917141  delta_E= 8.85  |g|= 4.47  |ddm|= 54.3
  HOMO = 0.0390492229439002  LUMO = 0.226550244015965
cycle= 3 E= -55.8808800030614  delta_E= -8.93  |g|= 0.591  |ddm|= 54.1
  HOMO = 0.0867943677713734  LUMO = 0.202621974417325
cycle= 4 E= -55.9192076211631  delta_E= -0.0383  |g|= 0.383  |ddm|= 0.817
  HOMO = 0.0912793543460079  LUMO = 0.20141477347063
cycle= 5 E= -55.940097306259  delta_E= -0.0209  |g|= 0.0887  |ddm|= 0.223
  HOMO = 0.0888120138595042  LUMO = 0.205411089354079
cycle= 6 E= -55.9413412465142  delta_E= -0.00124  |g|= 0.0518  |ddm|= 0.0746
  HOMO = 0.0812625866452517  LUMO = 0.204500179259013
cycle= 7 E= -55.9418674454258  delta_E= -0.000526  |g|= 0.01  |ddm|= 0.0617
  HOMO = 0.0799229716091669  LUMO = 0.20407847680269
cycle= 8 E= -55.9418829460426  delta_E= -1.55e-05  |g|= 0.0024  |ddm|= 0.0105
  HOMO = 0.0797034429299114  LUMO = 0.20409335110478
cycle= 9 E= -55.9418839178674  delta_E= -9.72e-07  |g|= 0.000208  |ddm|= 0.00249
  HOMO = 0.0797017374595648  LUMO = 0.204099514928261
cycle= 10 E= -55.9418839276003  delta_E= -9.73e-09  |g|= 2.13e-05  |ddm|= 0.000219
  HOMO = 0.0797047754743709  LUMO = 0.204100273555443
cycle= 11 E= -55.9418839276878  delta_E= -8.76e-11  |g|= 2.92e-06  |ddm|= 2.56e-05
  HOMO = 0.0797055274989237  LUMO = 0.204100007534253
Extra cycle  E= -55.9418839276844  delta_E= 3.4e-12  |g|= 5.23e-06  |ddm|= 9.23e-06
converged SCF energy = -55.9418839276844
