#INFO: **** input file is /oscar/home/snirenbe/stalk_pca/examples/nexus/sn2_pca/tpw/image_0/hessian/eqm_p3-0.001/scf.py ****
#!/usr/bin/env python3

from pyscf import dft
from numpy import savetxt


### generated system text ###
from pyscf import gto as gto_loc
mol = gto_loc.Mole()
mol.verbose  = 4
mol.atom     = '''
               C    0.37907653   0.00000229   0.00000000
               H    0.00125712   1.02598545  -0.00000000
               H    0.00125664  -0.51298894   0.88852731
               H    0.00125664  -0.51298894  -0.88852731
               F   -2.19564353   0.00000032  -0.00000000
               F    1.81279659  -0.00000053   0.00000000
               '''
mol.basis    = 'ccpvtz'
mol.unit     = 'A'
mol.ecp      = 'ccecp'
mol.charge   = -1
mol.spin     = 0
mol.symmetry = False
mol.cart     = True
mol.build()
### end generated system text ###



### generated calculation text ###
mf = dft.RKS(mol)
mf.xc = 'pbe'
e_scf = mf.kernel()
### end generated calculation text ###

savetxt('energy.dat', [[e_scf, 0.0]])#INFO: ******************** input file end ********************


System: uname_result(system='Linux', node='node1934.oscar.ccv.brown.edu', release='5.14.0-284.11.1.el9_2_cifs.x86_64', version='#1 SMP PREEMPT_DYNAMIC Tue Feb 20 16:51:59 EST 2024', machine='x86_64')  Threads 1
Python 3.11.0 (main, Jan 10 2024, 14:25:36) [GCC 11.3.1 20221121 (Red Hat 11.3.1-4)]
numpy 2.3.2  scipy 1.16.1  h5py 3.14.0
Date: Sun Aug 17 12:17:50 2025
PySCF version 2.10.0
PySCF path  /users/snirenbe/stalk_venv/lib64/python3.11/site-packages/pyscf

[CONFIG] conf_file None
[INPUT] verbose = 4
[INPUT] num. atoms = 6
[INPUT] num. electrons = 22
[INPUT] charge = -1
[INPUT] spin (= nelec alpha-beta = 2S) = 0
[INPUT] symmetry False subgroup None
[INPUT] Mole.unit = A
[INPUT] Cartesian GTO integrals (6d 10f)
[INPUT] Symbol           X                Y                Z      unit          X                Y                Z       unit  Magmom
[INPUT]  1 C      0.379076530000   0.000002290000   0.000000000000 AA    0.716350821950   0.000004327473   0.000000000000 Bohr   0.0
[INPUT]  2 H      0.001257120000   1.025985450000   0.000000000000 AA    0.002375612506   1.938831508289   0.000000000000 Bohr   0.0
[INPUT]  3 H      0.001256640000  -0.512988940000   0.888527310000 AA    0.002374705437  -0.969408601531   1.679073270097 Bohr   0.0
[INPUT]  4 H      0.001256640000  -0.512988940000  -0.888527310000 AA    0.002374705437  -0.969408601531  -1.679073270097 Bohr   0.0
[INPUT]  5 F     -2.195643530000   0.000000320000   0.000000000000 AA   -4.149164938873   0.000000604712   0.000000000000 Bohr   0.0
[INPUT]  6 F      1.812796590000  -0.000000530000   0.000000000000 AA    3.425689074645  -0.000001001555   0.000000000000 Bohr   0.0

nuclear repulsion = 39.1805166415975
number of shells = 45
number of NR pGTOs = 192
number of NR cGTOs = 150
basis = ccpvtz
ecp = ccecp
CPU time:         0.37


******** <class 'pyscf.dft.rks.RKS'> ********
method = RKS
initial guess = minao
damping factor = 0
level_shift factor = 0
DIIS = <class 'pyscf.scf.diis.CDIIS'>
diis_start_cycle = 1
diis_space = 8
diis_damp = 0
SCF conv_tol = 1e-09
SCF conv_tol_grad = None
SCF max_cycles = 50
direct_scf = True
direct_scf_tol = 1e-13
chkfile to save SCF result = /tmp/tmp8z8r_8uh
max_memory 4000 MB (current use 97 MB)
XC library pyscf.dft.libxc version 7.0.0
    S. Lehtola, C. Steigemann, M. J.T. Oliveira, and M. A.L. Marques.,  SoftwareX 7, 1–5 (2018)
XC functionals = pbe
    J. P. Perdew, K. Burke, and M. Ernzerhof.,  Phys. Rev. Lett. 77, 3865 (1996)
    J. P. Perdew, K. Burke, and M. Ernzerhof.,  Phys. Rev. Lett. 78, 1396 (1997)
    J. P. Perdew, K. Burke, and M. Ernzerhof.,  Phys. Rev. Lett. 77, 3865 (1996)
    J. P. Perdew, K. Burke, and M. Ernzerhof.,  Phys. Rev. Lett. 78, 1396 (1997)
radial grids: 
    Treutler-Ahlrichs [JCP 102, 346 (1995); DOI:10.1063/1.469408] (M4) radial grids
    
becke partition: Becke, JCP 88, 2547 (1988); DOI:10.1063/1.454033
pruning grids: <function nwchem_prune at 0x7f7fd43b4860>
grids dens level: 3
symmetrized grids: False
atomic radii adjust function: <function treutler_atomic_radii_adjust at 0x7f7fd43b47c0>
small_rho_cutoff = 1e-07
Set gradient conv threshold to 3.16228e-05
Initial guess from minao.
tot grids = 72072
init E= -37.5436082493866
  HOMO = -0.369904368879121  LUMO = -0.00535946464792968
cycle= 1 E= -55.7955616070578  delta_E= -18.3  |g|= 0.866  |ddm|= 1.89

WARN: HOMO 0.271040002862777 == LUMO 0.271040658720213

cycle= 2 E= -46.9687119135141  delta_E= 8.83  |g|= 4.47  |ddm|= 54.5
  HOMO = 0.0394206229151446  LUMO = 0.226658691090612
cycle= 3 E= -55.8811368857306  delta_E= -8.91  |g|= 0.59  |ddm|= 54.4
  HOMO = 0.0870283336437213  LUMO = 0.202673350585337
cycle= 4 E= -55.9192657775402  delta_E= -0.0381  |g|= 0.382  |ddm|= 0.816
  HOMO = 0.0913657582239883  LUMO = 0.201531402623736
cycle= 5 E= -55.9401021790192  delta_E= -0.0208  |g|= 0.0886  |ddm|= 0.223
  HOMO = 0.0888375800551556  LUMO = 0.205505558515246
cycle= 6 E= -55.941341556205  delta_E= -0.00124  |g|= 0.0516  |ddm|= 0.0747
  HOMO = 0.0812992694436238  LUMO = 0.20459026180645
cycle= 7 E= -55.9418639649722  delta_E= -0.000522  |g|= 0.0099  |ddm|= 0.0616
  HOMO = 0.0799790899062464  LUMO = 0.204170889862388
cycle= 8 E= -55.941879111664  delta_E= -1.51e-05  |g|= 0.00237  |ddm|= 0.0104
  HOMO = 0.0797631391951219  LUMO = 0.204185421772468
cycle= 9 E= -55.9418800604381  delta_E= -9.49e-07  |g|= 0.000206  |ddm|= 0.00245
  HOMO = 0.0797614376420331  LUMO = 0.204191572182059
cycle= 10 E= -55.9418800700162  delta_E= -9.58e-09  |g|= 2.1e-05  |ddm|= 0.000218
  HOMO = 0.0797644310604228  LUMO = 0.204192330800347
cycle= 11 E= -55.9418800701016  delta_E= -8.54e-11  |g|= 2.89e-06  |ddm|= 2.51e-05
  HOMO = 0.0797651734942101  LUMO = 0.204192066286724
Extra cycle  E= -55.9418800700988  delta_E= 2.81e-12  |g|= 5.17e-06  |ddm|= 9.14e-06
converged SCF energy = -55.9418800700988
