4
energy=-11.668578082826434
N       -0.04503681       0.00000007       0.00000000
H        0.72690636       1.78350136      -0.00000000
H        0.72709852      -0.89166793       1.54450849
H        0.72709852      -0.89166793      -1.54450849
