#INFO: **** input file is /oscar/home/snirenbe/stalk_pca/examples/nexus/sn2_pca/tpw/image_0/hessian/eqm_p0+0.001_p1+0.001/scf.py ****
#!/usr/bin/env python3

from pyscf import dft
from numpy import savetxt


### generated system text ###
from pyscf import gto as gto_loc
mol = gto_loc.Mole()
mol.verbose  = 4
mol.atom     = '''
               C    0.37988314   0.00000154   0.00000000
               H    0.00126678   1.02628620  -0.00000000
               H    0.00126630  -0.51314061   0.88878850
               H    0.00126630  -0.51314061  -0.88878850
               F   -2.19699059   0.00000199  -0.00000000
               F    1.81330807   0.00000113   0.00000000
               '''
mol.basis    = 'ccpvtz'
mol.unit     = 'A'
mol.ecp      = 'ccecp'
mol.charge   = -1
mol.spin     = 0
mol.symmetry = False
mol.cart     = True
mol.build()
### end generated system text ###



### generated calculation text ###
mf = dft.RKS(mol)
mf.xc = 'pbe'
e_scf = mf.kernel()
### end generated calculation text ###

savetxt('energy.dat', [[e_scf, 0.0]])#INFO: ******************** input file end ********************


System: uname_result(system='Linux', node='node1934.oscar.ccv.brown.edu', release='5.14.0-284.11.1.el9_2_cifs.x86_64', version='#1 SMP PREEMPT_DYNAMIC Tue Feb 20 16:51:59 EST 2024', machine='x86_64')  Threads 1
Python 3.11.0 (main, Jan 10 2024, 14:25:36) [GCC 11.3.1 20221121 (Red Hat 11.3.1-4)]
numpy 2.3.2  scipy 1.16.1  h5py 3.14.0
Date: Sun Aug 17 12:17:34 2025
PySCF version 2.10.0
PySCF path  /users/snirenbe/stalk_venv/lib64/python3.11/site-packages/pyscf

[CONFIG] conf_file None
[INPUT] verbose = 4
[INPUT] num. atoms = 6
[INPUT] num. electrons = 22
[INPUT] charge = -1
[INPUT] spin (= nelec alpha-beta = 2S) = 0
[INPUT] symmetry False subgroup None
[INPUT] Mole.unit = A
[INPUT] Cartesian GTO integrals (6d 10f)
[INPUT] Symbol           X                Y                Z      unit          X                Y                Z       unit  Magmom
[INPUT]  1 C      0.379883140000   0.000001540000   0.000000000000 AA    0.717875093940   0.000002910178   0.000000000000 Bohr   0.0
[INPUT]  2 H      0.001266780000   1.026286200000   0.000000000000 AA    0.002393867260   1.939399843421   0.000000000000 Bohr   0.0
[INPUT]  3 H      0.001266300000  -0.513140610000   0.888788500000 AA    0.002392960192  -0.969695216292   1.679566847663 Bohr   0.0
[INPUT]  4 H      0.001266300000  -0.513140610000  -0.888788500000 AA    0.002392960192  -0.969695216292  -1.679566847663 Bohr   0.0
[INPUT]  5 F     -2.196990590000   0.000001990000   0.000000000000 AA   -4.151710513347   0.000003760555   0.000000000000 Bohr   0.0
[INPUT]  6 F      1.813308070000   0.000001130000   0.000000000000 AA    3.426655631764   0.000002135391   0.000000000000 Bohr   0.0

nuclear repulsion = 39.1675447712364
number of shells = 45
number of NR pGTOs = 192
number of NR cGTOs = 150
basis = ccpvtz
ecp = ccecp
CPU time:         0.43


******** <class 'pyscf.dft.rks.RKS'> ********
method = RKS
initial guess = minao
damping factor = 0
level_shift factor = 0
DIIS = <class 'pyscf.scf.diis.CDIIS'>
diis_start_cycle = 1
diis_space = 8
diis_damp = 0
SCF conv_tol = 1e-09
SCF conv_tol_grad = None
SCF max_cycles = 50
direct_scf = True
direct_scf_tol = 1e-13
chkfile to save SCF result = /tmp/tmpt6fkx1ds
max_memory 4000 MB (current use 97 MB)
XC library pyscf.dft.libxc version 7.0.0
    S. Lehtola, C. Steigemann, M. J.T. Oliveira, and M. A.L. Marques.,  SoftwareX 7, 1–5 (2018)
XC functionals = pbe
    J. P. Perdew, K. Burke, and M. Ernzerhof.,  Phys. Rev. Lett. 77, 3865 (1996)
    J. P. Perdew, K. Burke, and M. Ernzerhof.,  Phys. Rev. Lett. 78, 1396 (1997)
    J. P. Perdew, K. Burke, and M. Ernzerhof.,  Phys. Rev. Lett. 77, 3865 (1996)
    J. P. Perdew, K. Burke, and M. Ernzerhof.,  Phys. Rev. Lett. 78, 1396 (1997)
radial grids: 
    Treutler-Ahlrichs [JCP 102, 346 (1995); DOI:10.1063/1.469408] (M4) radial grids
    
becke partition: Becke, JCP 88, 2547 (1988); DOI:10.1063/1.454033
pruning grids: <function nwchem_prune at 0x7fb6376289a0>
grids dens level: 3
symmetrized grids: False
atomic radii adjust function: <function treutler_atomic_radii_adjust at 0x7fb637628900>
small_rho_cutoff = 1e-07
Set gradient conv threshold to 3.16228e-05
Initial guess from minao.
tot grids = 72072
init E= -37.5435586971073
  HOMO = -0.36975904497134  LUMO = -0.00523188608148151
cycle= 1 E= -55.79555237948  delta_E= -18.3  |g|= 0.866  |ddm|= 1.89

WARN: HOMO 0.270941645216907 == LUMO 0.270942340694814

cycle= 2 E= -46.9543564452565  delta_E= 8.84  |g|= 4.47  |ddm|= 54.4
  HOMO = 0.0392320668178753  LUMO = 0.226621401309208
cycle= 3 E= -55.8810825337541  delta_E= -8.93  |g|= 0.59  |ddm|= 54.3
  HOMO = 0.0869682918234166  LUMO = 0.202612801780662
cycle= 4 E= -55.9192646026272  delta_E= -0.0382  |g|= 0.382  |ddm|= 0.816
  HOMO = 0.0914141821623909  LUMO = 0.20144995759078
cycle= 5 E= -55.940083962044  delta_E= -0.0208  |g|= 0.0886  |ddm|= 0.223
  HOMO = 0.0889122118714473  LUMO = 0.205432867071663
cycle= 6 E= -55.9413227127916  delta_E= -0.00124  |g|= 0.0517  |ddm|= 0.0746
  HOMO = 0.0813781373291538  LUMO = 0.204522604804653
cycle= 7 E= -55.941846128907  delta_E= -0.000523  |g|= 0.00996  |ddm|= 0.0617
  HOMO = 0.0800466310773455  LUMO = 0.204102558240796
cycle= 8 E= -55.9418614700961  delta_E= -1.53e-05  |g|= 0.00239  |ddm|= 0.0105
  HOMO = 0.0798280502838188  LUMO = 0.204117214211696
cycle= 9 E= -55.9418624356376  delta_E= -9.66e-07  |g|= 0.000206  |ddm|= 0.00248
  HOMO = 0.0798263886280821  LUMO = 0.204123386017707
cycle= 10 E= -55.941862445229  delta_E= -9.59e-09  |g|= 2.12e-05  |ddm|= 0.000218
  HOMO = 0.0798293971007901  LUMO = 0.204124137390905
cycle= 11 E= -55.9418624453152  delta_E= -8.63e-11  |g|= 2.9e-06  |ddm|= 2.53e-05
  HOMO = 0.0798301417583237  LUMO = 0.2041238734473
Extra cycle  E= -55.9418624453121  delta_E= 3.13e-12  |g|= 5.18e-06  |ddm|= 9.17e-06
converged SCF energy = -55.9418624453121
