#INFO: **** input file is /oscar/home/snirenbe/stalk_pca/examples/nexus/sn2_pca/tpw/image_0/hessian/eqm_p0+0.001/scf.py ****
#!/usr/bin/env python3

from pyscf import dft
from numpy import savetxt


### generated system text ###
from pyscf import gto as gto_loc
mol = gto_loc.Mole()
mol.verbose  = 4
mol.atom     = '''
               C    0.37988314   0.00000153   0.00000000
               H    0.00126678   1.02651476  -0.00000000
               H    0.00126630  -0.51325491   0.88898644
               H    0.00126630  -0.51325491  -0.88898644
               F   -2.19634126   0.00000202  -0.00000000
               F    1.81265874   0.00000116   0.00000000
               '''
mol.basis    = 'ccpvtz'
mol.unit     = 'A'
mol.ecp      = 'ccecp'
mol.charge   = -1
mol.spin     = 0
mol.symmetry = False
mol.cart     = True
mol.build()
### end generated system text ###



### generated calculation text ###
mf = dft.RKS(mol)
mf.xc = 'pbe'
e_scf = mf.kernel()
### end generated calculation text ###

savetxt('energy.dat', [[e_scf, 0.0]])#INFO: ******************** input file end ********************


System: uname_result(system='Linux', node='node1934.oscar.ccv.brown.edu', release='5.14.0-284.11.1.el9_2_cifs.x86_64', version='#1 SMP PREEMPT_DYNAMIC Tue Feb 20 16:51:59 EST 2024', machine='x86_64')  Threads 1
Python 3.11.0 (main, Jan 10 2024, 14:25:36) [GCC 11.3.1 20221121 (Red Hat 11.3.1-4)]
numpy 2.3.2  scipy 1.16.1  h5py 3.14.0
Date: Sun Aug 17 12:17:34 2025
PySCF version 2.10.0
PySCF path  /users/snirenbe/stalk_venv/lib64/python3.11/site-packages/pyscf

[CONFIG] conf_file None
[INPUT] verbose = 4
[INPUT] num. atoms = 6
[INPUT] num. electrons = 22
[INPUT] charge = -1
[INPUT] spin (= nelec alpha-beta = 2S) = 0
[INPUT] symmetry False subgroup None
[INPUT] Mole.unit = A
[INPUT] Cartesian GTO integrals (6d 10f)
[INPUT] Symbol           X                Y                Z      unit          X                Y                Z       unit  Magmom
[INPUT]  1 C      0.379883140000   0.000001530000   0.000000000000 AA    0.717875093940   0.000002891281   0.000000000000 Bohr   0.0
[INPUT]  2 H      0.001266780000   1.026514760000   0.000000000000 AA    0.002393867260   1.939831759224   0.000000000000 Bohr   0.0
[INPUT]  3 H      0.001266300000  -0.513254910000   0.888986440000 AA    0.002392960192  -0.969911211988   1.679940900052 Bohr   0.0
[INPUT]  4 H      0.001266300000  -0.513254910000  -0.888986440000 AA    0.002392960192  -0.969911211988  -1.679940900052 Bohr   0.0
[INPUT]  5 F     -2.196341260000   0.000002020000   0.000000000000 AA   -4.150483457482   0.000003817247   0.000000000000 Bohr   0.0
[INPUT]  6 F      1.812658740000   0.000001160000   0.000000000000 AA    3.425428575899   0.000002192082   0.000000000000 Bohr   0.0

nuclear repulsion = 39.1765241753427
number of shells = 45
number of NR pGTOs = 192
number of NR cGTOs = 150
basis = ccpvtz
ecp = ccecp
CPU time:         0.41


******** <class 'pyscf.dft.rks.RKS'> ********
method = RKS
initial guess = minao
damping factor = 0
level_shift factor = 0
DIIS = <class 'pyscf.scf.diis.CDIIS'>
diis_start_cycle = 1
diis_space = 8
diis_damp = 0
SCF conv_tol = 1e-09
SCF conv_tol_grad = None
SCF max_cycles = 50
direct_scf = True
direct_scf_tol = 1e-13
chkfile to save SCF result = /tmp/tmp_8mrm_xc
max_memory 4000 MB (current use 97 MB)
XC library pyscf.dft.libxc version 7.0.0
    S. Lehtola, C. Steigemann, M. J.T. Oliveira, and M. A.L. Marques.,  SoftwareX 7, 1–5 (2018)
XC functionals = pbe
    J. P. Perdew, K. Burke, and M. Ernzerhof.,  Phys. Rev. Lett. 77, 3865 (1996)
    J. P. Perdew, K. Burke, and M. Ernzerhof.,  Phys. Rev. Lett. 78, 1396 (1997)
    J. P. Perdew, K. Burke, and M. Ernzerhof.,  Phys. Rev. Lett. 77, 3865 (1996)
    J. P. Perdew, K. Burke, and M. Ernzerhof.,  Phys. Rev. Lett. 78, 1396 (1997)
radial grids: 
    Treutler-Ahlrichs [JCP 102, 346 (1995); DOI:10.1063/1.469408] (M4) radial grids
    
becke partition: Becke, JCP 88, 2547 (1988); DOI:10.1063/1.454033
pruning grids: <function nwchem_prune at 0x7f7ab7bc4860>
grids dens level: 3
symmetrized grids: False
atomic radii adjust function: <function treutler_atomic_radii_adjust at 0x7f7ab7bc47c0>
small_rho_cutoff = 1e-07
Set gradient conv threshold to 3.16228e-05
Initial guess from minao.
tot grids = 72072
init E= -37.5439000088307
  HOMO = -0.369663950936283  LUMO = -0.0050297349018313
cycle= 1 E= -55.7955595614557  delta_E= -18.3  |g|= 0.866  |ddm|= 1.89

WARN: HOMO 0.270965178194527 == LUMO 0.270965876568439

cycle= 2 E= -46.9619767949665  delta_E= 8.83  |g|= 4.47  |ddm|= 54.4
  HOMO = 0.0393296564925794  LUMO = 0.226619604228586
cycle= 3 E= -55.8811887434467  delta_E= -8.92  |g|= 0.589  |ddm|= 54.2
  HOMO = 0.0870486587573876  LUMO = 0.2026342333366
cycle= 4 E= -55.9192869736759  delta_E= -0.0381  |g|= 0.382  |ddm|= 0.816
  HOMO = 0.0914644328595804  LUMO = 0.201477805408294
cycle= 5 E= -55.9400885116314  delta_E= -0.0208  |g|= 0.0884  |ddm|= 0.223
  HOMO = 0.0889344132091626  LUMO = 0.205450369325963
cycle= 6 E= -55.9413223744402  delta_E= -0.00123  |g|= 0.0516  |ddm|= 0.0747
  HOMO = 0.0814155286797332  LUMO = 0.204537782347949
cycle= 7 E= -55.9418438656635  delta_E= -0.000521  |g|= 0.00993  |ddm|= 0.0615
  HOMO = 0.0800892254294327  LUMO = 0.204118865909621
cycle= 8 E= -55.9418590976416  delta_E= -1.52e-05  |g|= 0.00238  |ddm|= 0.0104
  HOMO = 0.0798719206186937  LUMO = 0.204133473890559
cycle= 9 E= -55.9418600549108  delta_E= -9.57e-07  |g|= 0.000205  |ddm|= 0.00247
  HOMO = 0.0798702905268142  LUMO = 0.204139622662055
cycle= 10 E= -55.9418600644241  delta_E= -9.51e-09  |g|= 2.11e-05  |ddm|= 0.000217
  HOMO = 0.0798732787688988  LUMO = 0.204140371108466
cycle= 11 E= -55.9418600645096  delta_E= -8.54e-11  |g|= 2.88e-06  |ddm|= 2.52e-05
  HOMO = 0.0798740157900778  LUMO = 0.204140108652498
Extra cycle  E= -55.9418600645064  delta_E= 3.14e-12  |g|= 5.13e-06  |ddm|= 9.08e-06
converged SCF energy = -55.9418600645064
