#INFO: **** input file is /oscar/home/snirenbe/stalk_pca/examples/nexus/sn2_pca/tpw/image_0/hessian/eqm_p2-0.001/scf.py ****
#!/usr/bin/env python3

from pyscf import dft
from numpy import savetxt


### generated system text ###
from pyscf import gto as gto_loc
mol = gto_loc.Mole()
mol.verbose  = 4
mol.atom     = '''
               C    0.37864908   0.00000153   0.00000000
               H    0.00166499   1.02651476  -0.00000000
               H    0.00166491  -0.51325491   0.88898644
               H    0.00166491  -0.51325491  -0.88898644
               F   -2.19632194   0.00000212  -0.00000000
               F    1.81267806   0.00000105   0.00000000
               '''
mol.basis    = 'ccpvtz'
mol.unit     = 'A'
mol.ecp      = 'ccecp'
mol.charge   = -1
mol.spin     = 0
mol.symmetry = False
mol.cart     = True
mol.build()
### end generated system text ###



### generated calculation text ###
mf = dft.RKS(mol)
mf.xc = 'pbe'
e_scf = mf.kernel()
### end generated calculation text ###

savetxt('energy.dat', [[e_scf, 0.0]])#INFO: ******************** input file end ********************


System: uname_result(system='Linux', node='node1934.oscar.ccv.brown.edu', release='5.14.0-284.11.1.el9_2_cifs.x86_64', version='#1 SMP PREEMPT_DYNAMIC Tue Feb 20 16:51:59 EST 2024', machine='x86_64')  Threads 1
Python 3.11.0 (main, Jan 10 2024, 14:25:36) [GCC 11.3.1 20221121 (Red Hat 11.3.1-4)]
numpy 2.3.2  scipy 1.16.1  h5py 3.14.0
Date: Sun Aug 17 12:17:34 2025
PySCF version 2.10.0
PySCF path  /users/snirenbe/stalk_venv/lib64/python3.11/site-packages/pyscf

[CONFIG] conf_file None
[INPUT] verbose = 4
[INPUT] num. atoms = 6
[INPUT] num. electrons = 22
[INPUT] charge = -1
[INPUT] spin (= nelec alpha-beta = 2S) = 0
[INPUT] symmetry False subgroup None
[INPUT] Mole.unit = A
[INPUT] Cartesian GTO integrals (6d 10f)
[INPUT] Symbol           X                Y                Z      unit          X                Y                Z       unit  Magmom
[INPUT]  1 C      0.378649080000   0.000001530000   0.000000000000 AA    0.715543058519   0.000002891281   0.000000000000 Bohr   0.0
[INPUT]  2 H      0.001664990000   1.026514760000   0.000000000000 AA    0.003146375100   1.939831759224   0.000000000000 Bohr   0.0
[INPUT]  3 H      0.001664910000  -0.513254910000   0.888986440000 AA    0.003146223922  -0.969911211988   1.679940900052 Bohr   0.0
[INPUT]  4 H      0.001664910000  -0.513254910000  -0.888986440000 AA    0.003146223922  -0.969911211988  -1.679940900052 Bohr   0.0
[INPUT]  5 F     -2.196321940000   0.000002120000   0.000000000000 AA   -4.150446947973   0.000004006219   0.000000000000 Bohr   0.0
[INPUT]  6 F      1.812678060000   0.000001050000   0.000000000000 AA    3.425465085408   0.000001984212   0.000000000000 Bohr   0.0

nuclear repulsion = 39.1734746366818
number of shells = 45
number of NR pGTOs = 192
number of NR cGTOs = 150
basis = ccpvtz
ecp = ccecp
CPU time:         0.41


******** <class 'pyscf.dft.rks.RKS'> ********
method = RKS
initial guess = minao
damping factor = 0
level_shift factor = 0
DIIS = <class 'pyscf.scf.diis.CDIIS'>
diis_start_cycle = 1
diis_space = 8
diis_damp = 0
SCF conv_tol = 1e-09
SCF conv_tol_grad = None
SCF max_cycles = 50
direct_scf = True
direct_scf_tol = 1e-13
chkfile to save SCF result = /tmp/tmpy_mh2zh_
max_memory 4000 MB (current use 97 MB)
XC library pyscf.dft.libxc version 7.0.0
    S. Lehtola, C. Steigemann, M. J.T. Oliveira, and M. A.L. Marques.,  SoftwareX 7, 1–5 (2018)
XC functionals = pbe
    J. P. Perdew, K. Burke, and M. Ernzerhof.,  Phys. Rev. Lett. 77, 3865 (1996)
    J. P. Perdew, K. Burke, and M. Ernzerhof.,  Phys. Rev. Lett. 78, 1396 (1997)
    J. P. Perdew, K. Burke, and M. Ernzerhof.,  Phys. Rev. Lett. 77, 3865 (1996)
    J. P. Perdew, K. Burke, and M. Ernzerhof.,  Phys. Rev. Lett. 78, 1396 (1997)
radial grids: 
    Treutler-Ahlrichs [JCP 102, 346 (1995); DOI:10.1063/1.469408] (M4) radial grids
    
becke partition: Becke, JCP 88, 2547 (1988); DOI:10.1063/1.454033
pruning grids: <function nwchem_prune at 0x7f8bf51d8860>
grids dens level: 3
symmetrized grids: False
atomic radii adjust function: <function treutler_atomic_radii_adjust at 0x7f8bf51d87c0>
small_rho_cutoff = 1e-07
Set gradient conv threshold to 3.16228e-05
Initial guess from minao.
tot grids = 72072
init E= -37.54336283612
  HOMO = -0.369899161994173  LUMO = -0.00544966706591994
cycle= 1 E= -55.7955358821176  delta_E= -18.3  |g|= 0.867  |ddm|= 1.89

WARN: HOMO 0.270939340494907 == LUMO 0.270940028264438

cycle= 2 E= -46.9590947859493  delta_E= 8.84  |g|= 4.47  |ddm|= 54.4
  HOMO = 0.0391955618016491  LUMO = 0.226603283934927
cycle= 3 E= -55.8810072183373  delta_E= -8.92  |g|= 0.59  |ddm|= 54.3
  HOMO = 0.0869704658405535  LUMO = 0.202613225987316
cycle= 4 E= -55.9192416974789  delta_E= -0.0382  |g|= 0.383  |ddm|= 0.816
  HOMO = 0.0913764166427565  LUMO = 0.20143338147616
cycle= 5 E= -55.9400922185716  delta_E= -0.0209  |g|= 0.0887  |ddm|= 0.223
  HOMO = 0.0888844245175309  LUMO = 0.205420163549758
cycle= 6 E= -55.9413334441244  delta_E= -0.00124  |g|= 0.0517  |ddm|= 0.0746
  HOMO = 0.0813393732469385  LUMO = 0.204507103944324
cycle= 7 E= -55.9418574946906  delta_E= -0.000524  |g|= 0.00995  |ddm|= 0.0616
  HOMO = 0.0800101777814296  LUMO = 0.204087062643096
cycle= 8 E= -55.9418727915345  delta_E= -1.53e-05  |g|= 0.00238  |ddm|= 0.0104
  HOMO = 0.0797931354350412  LUMO = 0.204101656379772
cycle= 9 E= -55.9418737445017  delta_E= -9.53e-07  |g|= 0.000207  |ddm|= 0.00246
  HOMO = 0.0797914531506556  LUMO = 0.204107813968059
cycle= 10 E= -55.9418737541508  delta_E= -9.65e-09  |g|= 2.12e-05  |ddm|= 0.000218
  HOMO = 0.0797944650961117  LUMO = 0.204108574037823
cycle= 11 E= -55.9418737542374  delta_E= -8.66e-11  |g|= 2.91e-06  |ddm|= 2.53e-05
  HOMO = 0.0797952126412243  LUMO = 0.204108308948325
Extra cycle  E= -55.9418737542345  delta_E= 2.96e-12  |g|= 5.2e-06  |ddm|= 9.18e-06
converged SCF energy = -55.9418737542345
