#INFO: **** input file is /oscar/home/snirenbe/stalk_pca/examples/nexus/sn2_pca/tpw/image_0/hessian/eqm_p2-0.001_p3+0.001/scf.py ****
#!/usr/bin/env python3

from pyscf import dft
from numpy import savetxt


### generated system text ###
from pyscf import gto as gto_loc
mol = gto_loc.Mole()
mol.verbose  = 4
mol.atom     = '''
               C    0.37864908   0.00000076  -0.00000000
               H    0.00166499   1.02704407  -0.00000000
               H    0.00166491  -0.51352088   0.88944558
               H    0.00166491  -0.51352088  -0.88944558
               F   -2.19660189   0.00000382   0.00000000
               F    1.81295800   0.00000274  -0.00000000
               '''
mol.basis    = 'ccpvtz'
mol.unit     = 'A'
mol.ecp      = 'ccecp'
mol.charge   = -1
mol.spin     = 0
mol.symmetry = False
mol.cart     = True
mol.build()
### end generated system text ###



### generated calculation text ###
mf = dft.RKS(mol)
mf.xc = 'pbe'
e_scf = mf.kernel()
### end generated calculation text ###

savetxt('energy.dat', [[e_scf, 0.0]])#INFO: ******************** input file end ********************


System: uname_result(system='Linux', node='node1934.oscar.ccv.brown.edu', release='5.14.0-284.11.1.el9_2_cifs.x86_64', version='#1 SMP PREEMPT_DYNAMIC Tue Feb 20 16:51:59 EST 2024', machine='x86_64')  Threads 1
Python 3.11.0 (main, Jan 10 2024, 14:25:36) [GCC 11.3.1 20221121 (Red Hat 11.3.1-4)]
numpy 2.3.2  scipy 1.16.1  h5py 3.14.0
Date: Sun Aug 17 12:17:34 2025
PySCF version 2.10.0
PySCF path  /users/snirenbe/stalk_venv/lib64/python3.11/site-packages/pyscf

[CONFIG] conf_file None
[INPUT] verbose = 4
[INPUT] num. atoms = 6
[INPUT] num. electrons = 22
[INPUT] charge = -1
[INPUT] spin (= nelec alpha-beta = 2S) = 0
[INPUT] symmetry False subgroup None
[INPUT] Mole.unit = A
[INPUT] Cartesian GTO integrals (6d 10f)
[INPUT] Symbol           X                Y                Z      unit          X                Y                Z       unit  Magmom
[INPUT]  1 C      0.378649080000   0.000000760000   0.000000000000 AA    0.715543058519   0.000001436192   0.000000000000 Bohr   0.0
[INPUT]  2 H      0.001664990000   1.027044070000   0.000000000000 AA    0.003146375100   1.940832010159   0.000000000000 Bohr   0.0
[INPUT]  3 H      0.001664910000  -0.513520880000   0.889445580000 AA    0.003146223922  -0.970413822446   1.680808548905 Bohr   0.0
[INPUT]  4 H      0.001664910000  -0.513520880000  -0.889445580000 AA    0.003146223922  -0.970413822446  -1.680808548905 Bohr   0.0
[INPUT]  5 F     -2.196601890000   0.000003820000   0.000000000000 AA   -4.150975976802   0.000007218754   0.000000000000 Bohr   0.0
[INPUT]  6 F      1.812958000000   0.000002740000   0.000000000000 AA    3.425994095339   0.000005177850   0.000000000000 Bohr   0.0

nuclear repulsion = 39.1646295777953
number of shells = 45
number of NR pGTOs = 192
number of NR cGTOs = 150
basis = ccpvtz
ecp = ccecp
CPU time:         0.43


******** <class 'pyscf.dft.rks.RKS'> ********
method = RKS
initial guess = minao
damping factor = 0
level_shift factor = 0
DIIS = <class 'pyscf.scf.diis.CDIIS'>
diis_start_cycle = 1
diis_space = 8
diis_damp = 0
SCF conv_tol = 1e-09
SCF conv_tol_grad = None
SCF max_cycles = 50
direct_scf = True
direct_scf_tol = 1e-13
chkfile to save SCF result = /tmp/tmp9ynnzgih
max_memory 4000 MB (current use 97 MB)
XC library pyscf.dft.libxc version 7.0.0
    S. Lehtola, C. Steigemann, M. J.T. Oliveira, and M. A.L. Marques.,  SoftwareX 7, 1–5 (2018)
XC functionals = pbe
    J. P. Perdew, K. Burke, and M. Ernzerhof.,  Phys. Rev. Lett. 77, 3865 (1996)
    J. P. Perdew, K. Burke, and M. Ernzerhof.,  Phys. Rev. Lett. 78, 1396 (1997)
    J. P. Perdew, K. Burke, and M. Ernzerhof.,  Phys. Rev. Lett. 77, 3865 (1996)
    J. P. Perdew, K. Burke, and M. Ernzerhof.,  Phys. Rev. Lett. 78, 1396 (1997)
radial grids: 
    Treutler-Ahlrichs [JCP 102, 346 (1995); DOI:10.1063/1.469408] (M4) radial grids
    
becke partition: Becke, JCP 88, 2547 (1988); DOI:10.1063/1.454033
pruning grids: <function nwchem_prune at 0x7f34a19489a0>
grids dens level: 3
symmetrized grids: False
atomic radii adjust function: <function treutler_atomic_radii_adjust at 0x7f34a1948900>
small_rho_cutoff = 1e-07
Set gradient conv threshold to 3.16228e-05
Initial guess from minao.
tot grids = 72072
init E= -37.5430762020053
  HOMO = -0.369811460866247  LUMO = -0.00548265033644179
cycle= 1 E= -55.7955246025012  delta_E= -18.3  |g|= 0.867  |ddm|= 1.89

WARN: HOMO 0.270819431784375 == LUMO 0.270820159647202

cycle= 2 E= -46.9486739212735  delta_E= 8.85  |g|= 4.47  |ddm|= 54.3
  HOMO = 0.0389963512170697  LUMO = 0.226548595510537
cycle= 3 E= -55.8808780263989  delta_E= -8.93  |g|= 0.591  |ddm|= 54.2
  HOMO = 0.086872894528291  LUMO = 0.2025759849328
cycle= 4 E= -55.9192145786662  delta_E= -0.0383  |g|= 0.383  |ddm|= 0.816
  HOMO = 0.0913510583127617  LUMO = 0.201361625682452
cycle= 5 E= -55.9400873762679  delta_E= -0.0209  |g|= 0.0887  |ddm|= 0.223
  HOMO = 0.0888915281119704  LUMO = 0.205360033799842
cycle= 6 E= -55.941330738031  delta_E= -0.00124  |g|= 0.0518  |ddm|= 0.0746
  HOMO = 0.0813405560042993  LUMO = 0.20444919038829
cycle= 7 E= -55.9418566008021  delta_E= -0.000526  |g|= 0.01  |ddm|= 0.0617
  HOMO = 0.0800018666521768  LUMO = 0.204028151575074
cycle= 8 E= -55.9418720664907  delta_E= -1.55e-05  |g|= 0.00239  |ddm|= 0.0105
  HOMO = 0.0797832653586169  LUMO = 0.204042879682595
cycle= 9 E= -55.941873028534  delta_E= -9.62e-07  |g|= 0.000207  |ddm|= 0.00247
  HOMO = 0.0797815883893151  LUMO = 0.204049044041573
cycle= 10 E= -55.9418730382584  delta_E= -9.72e-09  |g|= 2.13e-05  |ddm|= 0.000219
  HOMO = 0.0797846214501164  LUMO = 0.204049804615359
cycle= 11 E= -55.9418730383463  delta_E= -8.78e-11  |g|= 2.92e-06  |ddm|= 2.55e-05
  HOMO = 0.0797853739197729  LUMO = 0.204049538828973
Extra cycle  E= -55.9418730383429  delta_E= 3.33e-12  |g|= 5.23e-06  |ddm|= 9.22e-06
converged SCF energy = -55.9418730383429
