#INFO: **** input file is /oscar/home/snirenbe/stalk_pca/examples/nexus/sn2_pca/tpw/image_0/hessian/eqm_p0-0.001_p2-0.001/scf.py ****
#!/usr/bin/env python3

from pyscf import dft
from numpy import savetxt


### generated system text ###
from pyscf import gto as gto_loc
mol = gto_loc.Mole()
mol.verbose  = 4
mol.atom     = '''
               C    0.37784247   0.00000153   0.00000000
               H    0.00165534   1.02651476  -0.00000000
               H    0.00165525  -0.51325491   0.88898644
               H    0.00165525  -0.51325491  -0.88898644
               F   -2.19590415   0.00000212  -0.00000000
               F    1.81309585   0.00000105   0.00000000
               '''
mol.basis    = 'ccpvtz'
mol.unit     = 'A'
mol.ecp      = 'ccecp'
mol.charge   = -1
mol.spin     = 0
mol.symmetry = False
mol.cart     = True
mol.build()
### end generated system text ###



### generated calculation text ###
mf = dft.RKS(mol)
mf.xc = 'pbe'
e_scf = mf.kernel()
### end generated calculation text ###

savetxt('energy.dat', [[e_scf, 0.0]])#INFO: ******************** input file end ********************


System: uname_result(system='Linux', node='node1934.oscar.ccv.brown.edu', release='5.14.0-284.11.1.el9_2_cifs.x86_64', version='#1 SMP PREEMPT_DYNAMIC Tue Feb 20 16:51:59 EST 2024', machine='x86_64')  Threads 1
Python 3.11.0 (main, Jan 10 2024, 14:25:36) [GCC 11.3.1 20221121 (Red Hat 11.3.1-4)]
numpy 2.3.2  scipy 1.16.1  h5py 3.14.0
Date: Sun Aug 17 12:17:34 2025
PySCF version 2.10.0
PySCF path  /users/snirenbe/stalk_venv/lib64/python3.11/site-packages/pyscf

[CONFIG] conf_file None
[INPUT] verbose = 4
[INPUT] num. atoms = 6
[INPUT] num. electrons = 22
[INPUT] charge = -1
[INPUT] spin (= nelec alpha-beta = 2S) = 0
[INPUT] symmetry False subgroup None
[INPUT] Mole.unit = A
[INPUT] Cartesian GTO integrals (6d 10f)
[INPUT] Symbol           X                Y                Z      unit          X                Y                Z       unit  Magmom
[INPUT]  1 C      0.377842470000   0.000001530000   0.000000000000 AA    0.714018786529   0.000002891281   0.000000000000 Bohr   0.0
[INPUT]  2 H      0.001655340000   1.026514760000   0.000000000000 AA    0.003128139243   1.939831759224   0.000000000000 Bohr   0.0
[INPUT]  3 H      0.001655250000  -0.513254910000   0.888986440000 AA    0.003127969168  -0.969911211988   1.679940900052 Bohr   0.0
[INPUT]  4 H      0.001655250000  -0.513254910000  -0.888986440000 AA    0.003127969168  -0.969911211988  -1.679940900052 Bohr   0.0
[INPUT]  5 F     -2.195904150000   0.000002120000   0.000000000000 AA   -4.149657439296   0.000004006219   0.000000000000 Bohr   0.0
[INPUT]  6 F      1.813095850000   0.000001050000   0.000000000000 AA    3.426254594085   0.000001984212   0.000000000000 Bohr   0.0

nuclear repulsion = 39.1686335068515
number of shells = 45
number of NR pGTOs = 192
number of NR cGTOs = 150
basis = ccpvtz
ecp = ccecp
CPU time:         0.43


******** <class 'pyscf.dft.rks.RKS'> ********
method = RKS
initial guess = minao
damping factor = 0
level_shift factor = 0
DIIS = <class 'pyscf.scf.diis.CDIIS'>
diis_start_cycle = 1
diis_space = 8
diis_damp = 0
SCF conv_tol = 1e-09
SCF conv_tol_grad = None
SCF max_cycles = 50
direct_scf = True
direct_scf_tol = 1e-13
chkfile to save SCF result = /tmp/tmpgryn0p7l
max_memory 4000 MB (current use 97 MB)
XC library pyscf.dft.libxc version 7.0.0
    S. Lehtola, C. Steigemann, M. J.T. Oliveira, and M. A.L. Marques.,  SoftwareX 7, 1–5 (2018)
XC functionals = pbe
    J. P. Perdew, K. Burke, and M. Ernzerhof.,  Phys. Rev. Lett. 77, 3865 (1996)
    J. P. Perdew, K. Burke, and M. Ernzerhof.,  Phys. Rev. Lett. 78, 1396 (1997)
    J. P. Perdew, K. Burke, and M. Ernzerhof.,  Phys. Rev. Lett. 77, 3865 (1996)
    J. P. Perdew, K. Burke, and M. Ernzerhof.,  Phys. Rev. Lett. 78, 1396 (1997)
radial grids: 
    Treutler-Ahlrichs [JCP 102, 346 (1995); DOI:10.1063/1.469408] (M4) radial grids
    
becke partition: Becke, JCP 88, 2547 (1988); DOI:10.1063/1.454033
pruning grids: <function nwchem_prune at 0x7f39389a89a0>
grids dens level: 3
symmetrized grids: False
atomic radii adjust function: <function treutler_atomic_radii_adjust at 0x7f39389a8900>
small_rho_cutoff = 1e-07
Set gradient conv threshold to 3.16228e-05
Initial guess from minao.
tot grids = 72072
init E= -37.5427852308182
  HOMO = -0.370051131793267  LUMO = -0.00581644917271405
cycle= 1 E= -55.7955256880204  delta_E= -18.3  |g|= 0.867  |ddm|= 1.89

WARN: HOMO 0.270894395616914 == LUMO 0.27089508070258

cycle= 2 E= -46.9553977093842  delta_E= 8.84  |g|= 4.47  |ddm|= 54.5
  HOMO = 0.0390872563638603  LUMO = 0.226587753075686
cycle= 3 E= -55.8808247018975  delta_E= -8.93  |g|= 0.591  |ddm|= 54.3
  HOMO = 0.0868530378593239  LUMO = 0.202614917478898
cycle= 4 E= -55.9191913499502  delta_E= -0.0384  |g|= 0.383  |ddm|= 0.816
  HOMO = 0.091252095460829  LUMO = 0.201415381434914
cycle= 5 E= -55.9401000347314  delta_E= -0.0209  |g|= 0.0889  |ddm|= 0.223
  HOMO = 0.088794073573577  LUMO = 0.205415464263369
cycle= 6 E= -55.9413489754835  delta_E= -0.00125  |g|= 0.0518  |ddm|= 0.0746
  HOMO = 0.0812237000862793  LUMO = 0.204501838917355
cycle= 7 E= -55.9418757582139  delta_E= -0.000527  |g|= 0.00997  |ddm|= 0.0618
  HOMO = 0.0798911654456039  LUMO = 0.204080338288968
cycle= 8 E= -55.9418911376142  delta_E= -1.54e-05  |g|= 0.00238  |ddm|= 0.0104
  HOMO = 0.0796739268907391  LUMO = 0.204094990267621
cycle= 9 E= -55.9418920910865  delta_E= -9.53e-07  |g|= 0.000208  |ddm|= 0.00246
  HOMO = 0.0796721768400447  LUMO = 0.204101156499945
cycle= 10 E= -55.9418921008775  delta_E= -9.79e-09  |g|= 2.13e-05  |ddm|= 0.00022
  HOMO = 0.0796752152463529  LUMO = 0.204101927330794
cycle= 11 E= -55.9418921009652  delta_E= -8.77e-11  |g|= 2.93e-06  |ddm|= 2.55e-05
  HOMO = 0.0796759732015475  LUMO = 0.204101659467603
Extra cycle  E= -55.941892100962  delta_E= 3.18e-12  |g|= 5.28e-06  |ddm|= 9.28e-06
converged SCF energy = -55.941892100962
