#INFO: **** input file is /oscar/home/snirenbe/stalk_pca/examples/nexus/sn2_pca/tpw/image_0/hessian/eqm_p1-0.001_p3+0.001/scf.py ****
#!/usr/bin/env python3

from pyscf import dft
from numpy import savetxt


### generated system text ###
from pyscf import gto as gto_loc
mol = gto_loc.Mole()
mol.verbose  = 4
mol.atom     = '''
               C    0.37907653   0.00000076  -0.00000000
               H    0.00125712   1.02727264  -0.00000000
               H    0.00125664  -0.51363518   0.88964353
               H    0.00125664  -0.51363518  -0.88964353
               F   -2.19555408   0.00000373   0.00000000
               F    1.81270714   0.00000288  -0.00000000
               '''
mol.basis    = 'ccpvtz'
mol.unit     = 'A'
mol.ecp      = 'ccecp'
mol.charge   = -1
mol.spin     = 0
mol.symmetry = False
mol.cart     = True
mol.build()
### end generated system text ###



### generated calculation text ###
mf = dft.RKS(mol)
mf.xc = 'pbe'
e_scf = mf.kernel()
### end generated calculation text ###

savetxt('energy.dat', [[e_scf, 0.0]])#INFO: ******************** input file end ********************


System: uname_result(system='Linux', node='node1934.oscar.ccv.brown.edu', release='5.14.0-284.11.1.el9_2_cifs.x86_64', version='#1 SMP PREEMPT_DYNAMIC Tue Feb 20 16:51:59 EST 2024', machine='x86_64')  Threads 1
Python 3.11.0 (main, Jan 10 2024, 14:25:36) [GCC 11.3.1 20221121 (Red Hat 11.3.1-4)]
numpy 2.3.2  scipy 1.16.1  h5py 3.14.0
Date: Sun Aug 17 12:17:34 2025
PySCF version 2.10.0
PySCF path  /users/snirenbe/stalk_venv/lib64/python3.11/site-packages/pyscf

[CONFIG] conf_file None
[INPUT] verbose = 4
[INPUT] num. atoms = 6
[INPUT] num. electrons = 22
[INPUT] charge = -1
[INPUT] spin (= nelec alpha-beta = 2S) = 0
[INPUT] symmetry False subgroup None
[INPUT] Mole.unit = A
[INPUT] Cartesian GTO integrals (6d 10f)
[INPUT] Symbol           X                Y                Z      unit          X                Y                Z       unit  Magmom
[INPUT]  1 C      0.379076530000   0.000000760000   0.000000000000 AA    0.716350821950   0.000001436192   0.000000000000 Bohr   0.0
[INPUT]  2 H      0.001257120000   1.027272640000   0.000000000000 AA    0.002375612506   1.941263944859   0.000000000000 Bohr   0.0
[INPUT]  3 H      0.001256640000  -0.513635180000   0.889643530000 AA    0.002374705437  -0.970629818142   1.681182620191 Bohr   0.0
[INPUT]  4 H      0.001256640000  -0.513635180000  -0.889643530000 AA    0.002374705437  -0.970629818142  -1.681182620191 Bohr   0.0
[INPUT]  5 F     -2.195554080000   0.000003730000   0.000000000000 AA   -4.148995902871   0.000007048678   0.000000000000 Bohr   0.0
[INPUT]  6 F      1.812707140000   0.000002880000   0.000000000000 AA    3.425520038644   0.000005442411   0.000000000000 Bohr   0.0

nuclear repulsion = 39.171803031648
number of shells = 45
number of NR pGTOs = 192
number of NR cGTOs = 150
basis = ccpvtz
ecp = ccecp
CPU time:         0.43


******** <class 'pyscf.dft.rks.RKS'> ********
method = RKS
initial guess = minao
damping factor = 0
level_shift factor = 0
DIIS = <class 'pyscf.scf.diis.CDIIS'>
diis_start_cycle = 1
diis_space = 8
diis_damp = 0
SCF conv_tol = 1e-09
SCF conv_tol_grad = None
SCF max_cycles = 50
direct_scf = True
direct_scf_tol = 1e-13
chkfile to save SCF result = /tmp/tmpvb83pjqs
max_memory 4000 MB (current use 97 MB)
XC library pyscf.dft.libxc version 7.0.0
    S. Lehtola, C. Steigemann, M. J.T. Oliveira, and M. A.L. Marques.,  SoftwareX 7, 1–5 (2018)
XC functionals = pbe
    J. P. Perdew, K. Burke, and M. Ernzerhof.,  Phys. Rev. Lett. 77, 3865 (1996)
    J. P. Perdew, K. Burke, and M. Ernzerhof.,  Phys. Rev. Lett. 78, 1396 (1997)
    J. P. Perdew, K. Burke, and M. Ernzerhof.,  Phys. Rev. Lett. 77, 3865 (1996)
    J. P. Perdew, K. Burke, and M. Ernzerhof.,  Phys. Rev. Lett. 78, 1396 (1997)
radial grids: 
    Treutler-Ahlrichs [JCP 102, 346 (1995); DOI:10.1063/1.469408] (M4) radial grids
    
becke partition: Becke, JCP 88, 2547 (1988); DOI:10.1063/1.454033
pruning grids: <function nwchem_prune at 0x7f98a6bdc9a0>
grids dens level: 3
symmetrized grids: False
atomic radii adjust function: <function treutler_atomic_radii_adjust at 0x7f98a6bdc900>
small_rho_cutoff = 1e-07
Set gradient conv threshold to 3.16228e-05
Initial guess from minao.
tot grids = 72072
init E= -37.5433755301931
  HOMO = -0.369633926187628  LUMO = -0.00522206736025974
cycle= 1 E= -55.7955464042242  delta_E= -18.3  |g|= 0.867  |ddm|= 1.88

WARN: HOMO 0.270823969282187 == LUMO 0.270824708588542

cycle= 2 E= -46.9554655776983  delta_E= 8.84  |g|= 4.47  |ddm|= 54.3
  HOMO = 0.0391212744612442  LUMO = 0.226547585019283
cycle= 3 E= -55.8809862079832  delta_E= -8.93  |g|= 0.59  |ddm|= 54.2
  HOMO = 0.0869143370785849  LUMO = 0.202620240116228
cycle= 4 E= -55.9192337719826  delta_E= -0.0382  |g|= 0.383  |ddm|= 0.816
  HOMO = 0.0913657398324223  LUMO = 0.201416033280382
cycle= 5 E= -55.9400970935034  delta_E= -0.0209  |g|= 0.0886  |ddm|= 0.223
  HOMO = 0.0888741060279451  LUMO = 0.205402984103705
cycle= 6 E= -55.9413358291771  delta_E= -0.00124  |g|= 0.0517  |ddm|= 0.0746
  HOMO = 0.0813390432757466  LUMO = 0.20448977386799
cycle= 7 E= -55.9418599270447  delta_E= -0.000524  |g|= 0.00997  |ddm|= 0.0615
  HOMO = 0.0800051377194783  LUMO = 0.204069538460507
cycle= 8 E= -55.941875299527  delta_E= -1.54e-05  |g|= 0.00238  |ddm|= 0.0105
  HOMO = 0.0797873549869318  LUMO = 0.204084290599618
cycle= 9 E= -55.9418762581475  delta_E= -9.59e-07  |g|= 0.000207  |ddm|= 0.00247
  HOMO = 0.0797856962299329  LUMO = 0.204090431738402
cycle= 10 E= -55.9418762677973  delta_E= -9.65e-09  |g|= 2.12e-05  |ddm|= 0.000218
  HOMO = 0.0797887112980648  LUMO = 0.204091188368405
cycle= 11 E= -55.9418762678839  delta_E= -8.66e-11  |g|= 2.91e-06  |ddm|= 2.54e-05
  HOMO = 0.0797894558284991  LUMO = 0.204090923969973
Extra cycle  E= -55.941876267881  delta_E= 2.96e-12  |g|= 5.18e-06  |ddm|= 9.14e-06
converged SCF energy = -55.941876267881
