#INFO: **** input file is /oscar/home/snirenbe/stalk_pca/examples/nexus/sn2_pca/tpw/image_0/hessian/eqm_p1+0.001_p3+0.001/scf.py ****
#!/usr/bin/env python3

from pyscf import dft
from numpy import savetxt


### generated system text ###
from pyscf import gto as gto_loc
mol = gto_loc.Mole()
mol.verbose  = 4
mol.atom     = '''
               C    0.37907653   0.00000077  -0.00000000
               H    0.00125712   1.02681551  -0.00000000
               H    0.00125664  -0.51340658   0.88924763
               H    0.00125664  -0.51340658  -0.88924763
               F   -2.19685274   0.00000368   0.00000000
               F    1.81400581   0.00000283  -0.00000000
               '''
mol.basis    = 'ccpvtz'
mol.unit     = 'A'
mol.ecp      = 'ccecp'
mol.charge   = -1
mol.spin     = 0
mol.symmetry = False
mol.cart     = True
mol.build()
### end generated system text ###



### generated calculation text ###
mf = dft.RKS(mol)
mf.xc = 'pbe'
e_scf = mf.kernel()
### end generated calculation text ###

savetxt('energy.dat', [[e_scf, 0.0]])#INFO: ******************** input file end ********************


System: uname_result(system='Linux', node='node1934.oscar.ccv.brown.edu', release='5.14.0-284.11.1.el9_2_cifs.x86_64', version='#1 SMP PREEMPT_DYNAMIC Tue Feb 20 16:51:59 EST 2024', machine='x86_64')  Threads 1
Python 3.11.0 (main, Jan 10 2024, 14:25:36) [GCC 11.3.1 20221121 (Red Hat 11.3.1-4)]
numpy 2.3.2  scipy 1.16.1  h5py 3.14.0
Date: Sun Aug 17 12:17:34 2025
PySCF version 2.10.0
PySCF path  /users/snirenbe/stalk_venv/lib64/python3.11/site-packages/pyscf

[CONFIG] conf_file None
[INPUT] verbose = 4
[INPUT] num. atoms = 6
[INPUT] num. electrons = 22
[INPUT] charge = -1
[INPUT] spin (= nelec alpha-beta = 2S) = 0
[INPUT] symmetry False subgroup None
[INPUT] Mole.unit = A
[INPUT] Cartesian GTO integrals (6d 10f)
[INPUT] Symbol           X                Y                Z      unit          X                Y                Z       unit  Magmom
[INPUT]  1 C      0.379076530000   0.000000770000   0.000000000000 AA    0.716350821950   0.000001455089   0.000000000000 Bohr   0.0
[INPUT]  2 H      0.001257120000   1.026815510000   0.000000000000 AA    0.002375612506   1.940400094356   0.000000000000 Bohr   0.0
[INPUT]  3 H      0.001256640000  -0.513406580000   0.889247630000 AA    0.002374705437  -0.970197826750   1.680434477619 Bohr   0.0
[INPUT]  4 H      0.001256640000  -0.513406580000  -0.889247630000 AA    0.002374705437  -0.970197826750  -1.680434477619 Bohr   0.0
[INPUT]  5 F     -2.196852740000   0.000003680000   0.000000000000 AA   -4.151450014600   0.000006954192   0.000000000000 Bohr   0.0
[INPUT]  6 F      1.814005810000   0.000002830000   0.000000000000 AA    3.427974169270   0.000005347925   0.000000000000 Bohr   0.0

nuclear repulsion = 39.1538577395684
number of shells = 45
number of NR pGTOs = 192
number of NR cGTOs = 150
basis = ccpvtz
ecp = ccecp
CPU time:         0.44


******** <class 'pyscf.dft.rks.RKS'> ********
method = RKS
initial guess = minao
damping factor = 0
level_shift factor = 0
DIIS = <class 'pyscf.scf.diis.CDIIS'>
diis_start_cycle = 1
diis_space = 8
diis_damp = 0
SCF conv_tol = 1e-09
SCF conv_tol_grad = None
SCF max_cycles = 50
direct_scf = True
direct_scf_tol = 1e-13
chkfile to save SCF result = /tmp/tmpwa_lkb3x
max_memory 4000 MB (current use 97 MB)
XC library pyscf.dft.libxc version 7.0.0
    S. Lehtola, C. Steigemann, M. J.T. Oliveira, and M. A.L. Marques.,  SoftwareX 7, 1–5 (2018)
XC functionals = pbe
    J. P. Perdew, K. Burke, and M. Ernzerhof.,  Phys. Rev. Lett. 77, 3865 (1996)
    J. P. Perdew, K. Burke, and M. Ernzerhof.,  Phys. Rev. Lett. 78, 1396 (1997)
    J. P. Perdew, K. Burke, and M. Ernzerhof.,  Phys. Rev. Lett. 77, 3865 (1996)
    J. P. Perdew, K. Burke, and M. Ernzerhof.,  Phys. Rev. Lett. 78, 1396 (1997)
radial grids: 
    Treutler-Ahlrichs [JCP 102, 346 (1995); DOI:10.1063/1.469408] (M4) radial grids
    
becke partition: Becke, JCP 88, 2547 (1988); DOI:10.1063/1.454033
pruning grids: <function nwchem_prune at 0x7f7187c209a0>
grids dens level: 3
symmetrized grids: False
atomic radii adjust function: <function treutler_atomic_radii_adjust at 0x7f7187c20900>
small_rho_cutoff = 1e-07
Set gradient conv threshold to 3.16228e-05
Initial guess from minao.
tot grids = 72072
init E= -37.5426942297381
  HOMO = -0.36982402310584  LUMO = -0.00563083849216986
cycle= 1 E= -55.7955314034192  delta_E= -18.3  |g|= 0.867  |ddm|= 1.88

WARN: HOMO 0.270776898379811 == LUMO 0.270777630248514

cycle= 2 E= -46.9402346548787  delta_E= 8.86  |g|= 4.47  |ddm|= 54.3
  HOMO = 0.0389239319564855  LUMO = 0.226551251712026
cycle= 3 E= -55.8807714926541  delta_E= -8.94  |g|= 0.591  |ddm|= 54.2
  HOMO = 0.0867528232815627  LUMO = 0.202577181082021
cycle= 4 E= -55.9191883725129  delta_E= -0.0384  |g|= 0.383  |ddm|= 0.817
  HOMO = 0.0912646497350318  LUMO = 0.201360086897474
cycle= 5 E= -55.9400875383755  delta_E= -0.0209  |g|= 0.0889  |ddm|= 0.223
  HOMO = 0.0888294816214864  LUMO = 0.20536794939572
cycle= 6 E= -55.9413361238803  delta_E= -0.00125  |g|= 0.0519  |ddm|= 0.0746
  HOMO = 0.0812642148309863  LUMO = 0.204459412072887
cycle= 7 E= -55.9418640914759  delta_E= -0.000528  |g|= 0.01  |ddm|= 0.0618
  HOMO = 0.079919807971921  LUMO = 0.20403690268817
cycle= 8 E= -55.9418796860099  delta_E= -1.56e-05  |g|= 0.0024  |ddm|= 0.0105
  HOMO = 0.0796994551486414  LUMO = 0.204051751979271
cycle= 9 E= -55.9418806613163  delta_E= -9.75e-07  |g|= 0.000208  |ddm|= 0.00249
  HOMO = 0.079697730273986  LUMO = 0.204057939403128
cycle= 10 E= -55.941880671125  delta_E= -9.81e-09  |g|= 2.15e-05  |ddm|= 0.00022
  HOMO = 0.079700786450205  LUMO = 0.204058701980024
cycle= 11 E= -55.9418806712134  delta_E= -8.84e-11  |g|= 2.94e-06  |ddm|= 2.57e-05
  HOMO = 0.0797015464579469  LUMO = 0.204058434569797
Extra cycle  E= -55.9418806712105  delta_E= 2.88e-12  |g|= 5.28e-06  |ddm|= 9.31e-06
converged SCF energy = -55.9418806712105
